<?xml version="1.0"?>
<VTKFile type="UnstructuredGrid"  version="0.1"  >
<UnstructuredGrid>
<Piece  NumberOfPoints="20201" NumberOfCells="40000">
<Points>
<DataArray  type="Float64"  NumberOfComponents="3"  format="ascii">0 0 0  2 0 0  4 0 0  6 0 0  8 0 0  10 0 0  12 0 0  14 0 0  16 0 0  18 0 0  20 0 0  22 0 0  24 0 0  26 0 0  28 0 0  30 0 0  32 0 0  34 0 0  36 0 0  38 0 0  40 0 0  42 0 0  44 0 0  46 0 0  48 0 0  50 0 0  52 0 0  54 0 0  56 0 0  58 0 0  60 0 0  62 0 0  64 0 0  66 0 0  68 0 0  70 0 0  72 0 0  74 0 0  76 0 0  78 0 0  80 0 0  82 0 0  84 0 0  86 0 0  88 0 0  90 0 0  92 0 0  94 0 0  96 0 0  98 0 0  100 0 0  102 0 0  104 0 0  106 0 0  108 0 0  110 0 0  112 0 0  114 0 0  116 0 0  118 0 0  120 0 0  122 0 0  124 0 0  126 0 0  128 0 0  130 0 0  132 0 0  134 0 0  136 0 0  138 0 0  140 0 0  142 0 0  144 0 0  146 0 0  148 0 0  150 0 0  152 0 0  154 0 0  156 0 0  158 0 0  160 0 0  162 0 0  164 0 0  166 0 0  168 0 0  170 0 0  172 0 0  174 0 0  176 0 0  178 0 0  180 0 0  182 0 0  184 0 0  186 0 0  188 0 0  190 0 0  192 0 0  194 0 0  196 0 0  198 0 0  200 0 0  0 2 0  2 2 0  4 2 0  6 2 0  8 2 0  10 2 0  12 2 0  14 2 0  16 2 0  18 2 0  20 2 0  22 2 0  24 2 0  26 2 0  28 2 0  30 2 0  32 2 0  34 2 0  36 2 0  38 2 0  40 2 0  42 2 0  44 2 0  46 2 0  48 2 0  50 2 0  52 2 0  54 2 0  56 2 0  58 2 0  60 2 0  62 2 0  64 2 0  66 2 0  68 2 0  70 2 0  72 2 0  74 2 0  76 2 0  78 2 0  80 2 0  82 2 0  84 2 0  86 2 0  88 2 0  90 2 0  92 2 0  94 2 0  96 2 0  98 2 0  100 2 0  102 2 0  104 2 0  106 2 0  108 2 0  110 2 0  112 2 0  114 2 0  116 2 0  118 2 0  120 2 0  122 2 0  124 2 0  126 2 0  128 2 0  130 2 0  132 2 0  134 2 0  136 2 0  138 2 0  140 2 0  142 2 0  144 2 0  146 2 0  148 2 0  150 2 0  152 2 0  154 2 0  156 2 0  158 2 0  160 2 0  162 2 0  164 2 0  166 2 0  168 2 0  170 2 0  172 2 0  174 2 0  176 2 0  178 2 0  180 2 0  182 2 0  184 2 0  186 2 0  188 2 0  190 2 0  192 2 0  194 2 0  196 2 0  198 2 0  200 2 0  0 4 0  2 4 0  4 4 0  6 4 0  8 4 0  10 4 0  12 4 0  14 4 0  16 4 0  18 4 0  20 4 0  22 4 0  24 4 0  26 4 0  28 4 0  30 4 0  32 4 0  34 4 0  36 4 0  38 4 0  40 4 0  42 4 0  44 4 0  46 4 0  48 4 0  50 4 0  52 4 0  54 4 0  56 4 0  58 4 0  60 4 0  62 4 0  64 4 0  66 4 0  68 4 0  70 4 0  72 4 0  74 4 0  76 4 0  78 4 0  80 4 0  82 4 0  84 4 0  86 4 0  88 4 0  90 4 0  92 4 0  94 4 0  96 4 0  98 4 0  100 4 0  102 4 0  104 4 0  106 4 0  108 4 0  110 4 0  112 4 0  114 4 0  116 4 0  118 4 0  120 4 0  122 4 0  124 4 0  126 4 0  128 4 0  130 4 0  132 4 0  134 4 0  136 4 0  138 4 0  140 4 0  142 4 0  144 4 0  146 4 0  148 4 0  150 4 0  152 4 0  154 4 0  156 4 0  158 4 0  160 4 0  162 4 0  164 4 0  166 4 0  168 4 0  170 4 0  172 4 0  174 4 0  176 4 0  178 4 0  180 4 0  182 4 0  184 4 0  186 4 0  188 4 0  190 4 0  192 4 0  194 4 0  196 4 0  198 4 0  200 4 0  0 6 0  2 6 0  4 6 0  6 6 0  8 6 0  10 6 0  12 6 0  14 6 0  16 6 0  18 6 0  20 6 0  22 6 0  24 6 0  26 6 0  28 6 0  30 6 0  32 6 0  34 6 0  36 6 0  38 6 0  40 6 0  42 6 0  44 6 0  46 6 0  48 6 0  50 6 0  52 6 0  54 6 0  56 6 0  58 6 0  60 6 0  62 6 0  64 6 0  66 6 0  68 6 0  70 6 0  72 6 0  74 6 0  76 6 0  78 6 0  80 6 0  82 6 0  84 6 0  86 6 0  88 6 0  90 6 0  92 6 0  94 6 0  96 6 0  98 6 0  100 6 0  102 6 0  104 6 0  106 6 0  108 6 0  110 6 0  112 6 0  114 6 0  116 6 0  118 6 0  120 6 0  122 6 0  124 6 0  126 6 0  128 6 0  130 6 0  132 6 0  134 6 0  136 6 0  138 6 0  140 6 0  142 6 0  144 6 0  146 6 0  148 6 0  150 6 0  152 6 0  154 6 0  156 6 0  158 6 0  160 6 0  162 6 0  164 6 0  166 6 0  168 6 0  170 6 0  172 6 0  174 6 0  176 6 0  178 6 0  180 6 0  182 6 0  184 6 0  186 6 0  188 6 0  190 6 0  192 6 0  194 6 0  196 6 0  198 6 0  200 6 0  0 8 0  2 8 0  4 8 0  6 8 0  8 8 0  10 8 0  12 8 0  14 8 0  16 8 0  18 8 0  20 8 0  22 8 0  24 8 0  26 8 0  28 8 0  30 8 0  32 8 0  34 8 0  36 8 0  38 8 0  40 8 0  42 8 0  44 8 0  46 8 0  48 8 0  50 8 0  52 8 0  54 8 0  56 8 0  58 8 0  60 8 0  62 8 0  64 8 0  66 8 0  68 8 0  70 8 0  72 8 0  74 8 0  76 8 0  78 8 0  80 8 0  82 8 0  84 8 0  86 8 0  88 8 0  90 8 0  92 8 0  94 8 0  96 8 0  98 8 0  100 8 0  102 8 0  104 8 0  106 8 0  108 8 0  110 8 0  112 8 0  114 8 0  116 8 0  118 8 0  120 8 0  122 8 0  124 8 0  126 8 0  128 8 0  130 8 0  132 8 0  134 8 0  136 8 0  138 8 0  140 8 0  142 8 0  144 8 0  146 8 0  148 8 0  150 8 0  152 8 0  154 8 0  156 8 0  158 8 0  160 8 0  162 8 0  164 8 0  166 8 0  168 8 0  170 8 0  172 8 0  174 8 0  176 8 0  178 8 0  180 8 0  182 8 0  184 8 0  186 8 0  188 8 0  190 8 0  192 8 0  194 8 0  196 8 0  198 8 0  200 8 0  0 10 0  2 10 0  4 10 0  6 10 0  8 10 0  10 10 0  12 10 0  14 10 0  16 10 0  18 10 0  20 10 0  22 10 0  24 10 0  26 10 0  28 10 0  30 10 0  32 10 0  34 10 0  36 10 0  38 10 0  40 10 0  42 10 0  44 10 0  46 10 0  48 10 0  50 10 0  52 10 0  54 10 0  56 10 0  58 10 0  60 10 0  62 10 0  64 10 0  66 10 0  68 10 0  70 10 0  72 10 0  74 10 0  76 10 0  78 10 0  80 10 0  82 10 0  84 10 0  86 10 0  88 10 0  90 10 0  92 10 0  94 10 0  96 10 0  98 10 0  100 10 0  102 10 0  104 10 0  106 10 0  108 10 0  110 10 0  112 10 0  114 10 0  116 10 0  118 10 0  120 10 0  122 10 0  124 10 0  126 10 0  128 10 0  130 10 0  132 10 0  134 10 0  136 10 0  138 10 0  140 10 0  142 10 0  144 10 0  146 10 0  148 10 0  150 10 0  152 10 0  154 10 0  156 10 0  158 10 0  160 10 0  162 10 0  164 10 0  166 10 0  168 10 0  170 10 0  172 10 0  174 10 0  176 10 0  178 10 0  180 10 0  182 10 0  184 10 0  186 10 0  188 10 0  190 10 0  192 10 0  194 10 0  196 10 0  198 10 0  200 10 0  0 12 0  2 12 0  4 12 0  6 12 0  8 12 0  10 12 0  12 12 0  14 12 0  16 12 0  18 12 0  20 12 0  22 12 0  24 12 0  26 12 0  28 12 0  30 12 0  32 12 0  34 12 0  36 12 0  38 12 0  40 12 0  42 12 0  44 12 0  46 12 0  48 12 0  50 12 0  52 12 0  54 12 0  56 12 0  58 12 0  60 12 0  62 12 0  64 12 0  66 12 0  68 12 0  70 12 0  72 12 0  74 12 0  76 12 0  78 12 0  80 12 0  82 12 0  84 12 0  86 12 0  88 12 0  90 12 0  92 12 0  94 12 0  96 12 0  98 12 0  100 12 0  102 12 0  104 12 0  106 12 0  108 12 0  110 12 0  112 12 0  114 12 0  116 12 0  118 12 0  120 12 0  122 12 0  124 12 0  126 12 0  128 12 0  130 12 0  132 12 0  134 12 0  136 12 0  138 12 0  140 12 0  142 12 0  144 12 0  146 12 0  148 12 0  150 12 0  152 12 0  154 12 0  156 12 0  158 12 0  160 12 0  162 12 0  164 12 0  166 12 0  168 12 0  170 12 0  172 12 0  174 12 0  176 12 0  178 12 0  180 12 0  182 12 0  184 12 0  186 12 0  188 12 0  190 12 0  192 12 0  194 12 0  196 12 0  198 12 0  200 12 0  0 14 0  2 14 0  4 14 0  6 14 0  8 14 0  10 14 0  12 14 0  14 14 0  16 14 0  18 14 0  20 14 0  22 14 0  24 14 0  26 14 0  28 14 0  30 14 0  32 14 0  34 14 0  36 14 0  38 14 0  40 14 0  42 14 0  44 14 0  46 14 0  48 14 0  50 14 0  52 14 0  54 14 0  56 14 0  58 14 0  60 14 0  62 14 0  64 14 0  66 14 0  68 14 0  70 14 0  72 14 0  74 14 0  76 14 0  78 14 0  80 14 0  82 14 0  84 14 0  86 14 0  88 14 0  90 14 0  92 14 0  94 14 0  96 14 0  98 14 0  100 14 0  102 14 0  104 14 0  106 14 0  108 14 0  110 14 0  112 14 0  114 14 0  116 14 0  118 14 0  120 14 0  122 14 0  124 14 0  126 14 0  128 14 0  130 14 0  132 14 0  134 14 0  136 14 0  138 14 0  140 14 0  142 14 0  144 14 0  146 14 0  148 14 0  150 14 0  152 14 0  154 14 0  156 14 0  158 14 0  160 14 0  162 14 0  164 14 0  166 14 0  168 14 0  170 14 0  172 14 0  174 14 0  176 14 0  178 14 0  180 14 0  182 14 0  184 14 0  186 14 0  188 14 0  190 14 0  192 14 0  194 14 0  196 14 0  198 14 0  200 14 0  0 16 0  2 16 0  4 16 0  6 16 0  8 16 0  10 16 0  12 16 0  14 16 0  16 16 0  18 16 0  20 16 0  22 16 0  24 16 0  26 16 0  28 16 0  30 16 0  32 16 0  34 16 0  36 16 0  38 16 0  40 16 0  42 16 0  44 16 0  46 16 0  48 16 0  50 16 0  52 16 0  54 16 0  56 16 0  58 16 0  60 16 0  62 16 0  64 16 0  66 16 0  68 16 0  70 16 0  72 16 0  74 16 0  76 16 0  78 16 0  80 16 0  82 16 0  84 16 0  86 16 0  88 16 0  90 16 0  92 16 0  94 16 0  96 16 0  98 16 0  100 16 0  102 16 0  104 16 0  106 16 0  108 16 0  110 16 0  112 16 0  114 16 0  116 16 0  118 16 0  120 16 0  122 16 0  124 16 0  126 16 0  128 16 0  130 16 0  132 16 0  134 16 0  136 16 0  138 16 0  140 16 0  142 16 0  144 16 0  146 16 0  148 16 0  150 16 0  152 16 0  154 16 0  156 16 0  158 16 0  160 16 0  162 16 0  164 16 0  166 16 0  168 16 0  170 16 0  172 16 0  174 16 0  176 16 0  178 16 0  180 16 0  182 16 0  184 16 0  186 16 0  188 16 0  190 16 0  192 16 0  194 16 0  196 16 0  198 16 0  200 16 0  0 18 0  2 18 0  4 18 0  6 18 0  8 18 0  10 18 0  12 18 0  14 18 0  16 18 0  18 18 0  20 18 0  22 18 0  24 18 0  26 18 0  28 18 0  30 18 0  32 18 0  34 18 0  36 18 0  38 18 0  40 18 0  42 18 0  44 18 0  46 18 0  48 18 0  50 18 0  52 18 0  54 18 0  56 18 0  58 18 0  60 18 0  62 18 0  64 18 0  66 18 0  68 18 0  70 18 0  72 18 0  74 18 0  76 18 0  78 18 0  80 18 0  82 18 0  84 18 0  86 18 0  88 18 0  90 18 0  92 18 0  94 18 0  96 18 0  98 18 0  100 18 0  102 18 0  104 18 0  106 18 0  108 18 0  110 18 0  112 18 0  114 18 0  116 18 0  118 18 0  120 18 0  122 18 0  124 18 0  126 18 0  128 18 0  130 18 0  132 18 0  134 18 0  136 18 0  138 18 0  140 18 0  142 18 0  144 18 0  146 18 0  148 18 0  150 18 0  152 18 0  154 18 0  156 18 0  158 18 0  160 18 0  162 18 0  164 18 0  166 18 0  168 18 0  170 18 0  172 18 0  174 18 0  176 18 0  178 18 0  180 18 0  182 18 0  184 18 0  186 18 0  188 18 0  190 18 0  192 18 0  194 18 0  196 18 0  198 18 0  200 18 0  0 20 0  2 20 0  4 20 0  6 20 0  8 20 0  10 20 0  12 20 0  14 20 0  16 20 0  18 20 0  20 20 0  22 20 0  24 20 0  26 20 0  28 20 0  30 20 0  32 20 0  34 20 0  36 20 0  38 20 0  40 20 0  42 20 0  44 20 0  46 20 0  48 20 0  50 20 0  52 20 0  54 20 0  56 20 0  58 20 0  60 20 0  62 20 0  64 20 0  66 20 0  68 20 0  70 20 0  72 20 0  74 20 0  76 20 0  78 20 0  80 20 0  82 20 0  84 20 0  86 20 0  88 20 0  90 20 0  92 20 0  94 20 0  96 20 0  98 20 0  100 20 0  102 20 0  104 20 0  106 20 0  108 20 0  110 20 0  112 20 0  114 20 0  116 20 0  118 20 0  120 20 0  122 20 0  124 20 0  126 20 0  128 20 0  130 20 0  132 20 0  134 20 0  136 20 0  138 20 0  140 20 0  142 20 0  144 20 0  146 20 0  148 20 0  150 20 0  152 20 0  154 20 0  156 20 0
[...]
<PointData  Scalars="f_271-0"> 
<DataArray  type="Float64"  Name="f_271-0"  format="ascii">5.9783333654049264e-01  5.9570258656306319e-01  5.8968616866089252e-01  5.8077680390068942e-01  5.7025538145400356e-01  5.5933464954828838e-01  5.4891126233973531e-01  5.3946178932821753e-01  5.3104428026404238e-01  5.2336356386304272e-01  5.1589289806982341e-01  5.0805865195931499e-01  4.9946583520501353e-01  4.9009869661762046e-01  4.8041671550347681e-01  4.7129897762319872e-01  4.6384835429578364e-01  4.5911744053485742e-01  4.5784028749623246e-01  4.6024553542128932e-01  4.6599674714361949e-01  4.7426762153228230e-01  4.8392543205600946e-01  4.9377302639770371e-01  5.0279024088741131e-01  5.1031879321387019e-01  5.1614908592389241e-01  5.2049067612615141e-01  5.2383631404008102e-01  5.2675627066573605e-01  5.2967882832584656e-01  5.3272012723759643e-01  5.3562054807659076e-01  5.3782401705745486e-01  5.3869618541049769e-01  5.3781250750537735e-01  5.3517207629511954e-01  5.3116794734043182e-01  5.2626333005312520e-01  5.2059752836948725e-01  5.1394738720137323e-01  5.0623188991742818e-01  4.9811581661365073e-01  4.9100330052068369e-01  4.8632604576396615e-01  4.8477102448820986e-01  4.8604554111829029e-01  4.8920191436349764e-01  4.9317016165495237e-01  4.9717871896240057e-01  5.0093838700544902e-01  5.0460400549451478e-01  5.0857122143897437e-01  5.1315523178230171e-01  5.1816549643917642e-01  5.2233739769908027e-01  5.2258647142074988e-01  5.1490790479877413e-01  5.2959274582894533e-01  6.9488548944197037e-01  8.1108491214104028e-01  8.0338909332951391e-01  6.5657153102931265e-01  5.3467942716926398e-01  7.1145987737750094e-01  7.7469716465436433e-01  7.7891311805134644e-01  7.7762172210948999e-01  7.5595879674259592e-01  6.1296141201324927e-01  4.8268538828101115e-01  4.9072584872189023e-01  5.0735184891581608e-01  5.1315654148173051e-01  5.1197363339670932e-01  5.0730678244048721e-01  5.0164103480876854e-01  4.9674871533904108e-01  4.9381429905213531e-01  4.9343810215583794e-01  4.9563154991150132e-01  4.9987623181027419e-01  5.0526777262608991e-01  5.1072072224494580e-01  5.1517675522389661e-01  5.1773950332202068e-01  5.1766474317859401e-01  5.1417751203791573e-01  5.0617314796155632e-01  4.9197165092083467e-01  4.6955210519946061e-01  4.4208176621914635e-01  4.7773405529018281e-01  6.5669925967557019e-01  6.9939286575323500e-01  6.7225197081325982e-01  6.4069726382696734e-01  6.1399650756830104e-01  5.9420265439883713e-01  5.8212113413270172e-01  5.7806695823010645e-01  5.9481114657331324e-01  5.9275827370792733e-01  5.8695913431155267e-01  5.7836450320718202e-01  5.6820415851496586e-01  5.5764614564312032e-01  5.4755669868809398e-01  5.3839680945484147e-01  5.3022146717196150e-01  5.2274281678284396e-01  5.1544937070633734e-01  5.0778596530604503e-01  4.9937206960428582e-01  4.9019529495054159e-01  4.8070398050491064e-01  4.7175366058198659e-01  4.6441791273893157e-01  4.5972283152909393e-01  4.5838623458650785e-01  4.6063516847975361e-01  4.6614676312471215e-01  4.7412051519515319e-01  4.8345647264761799e-01  4.9299104435506369e-01  5.0173262058158130e-01  5.0904218577422033e-01  5.1471815157814038e-01  5.1896750661220448e-01  5.2227295835656895e-01  5.2519198315118065e-01  5.2814240848155292e-01  5.3123624823992666e-01  5.3421752308660631e-01  5.3653935017068466e-01  5.3757611629345792e-01  5.3690365179596522e-01  5.3450805562347881e-01  5.3076019244418549e-01  5.2610719946096207e-01  5.2069496793998049e-01  5.1432776006657077e-01  5.0694429750446068e-01  4.9918964513299457e-01  4.9240927380235144e-01  4.8797158044654776e-01  4.8652996457767761e-01  4.8779666625264406e-01  4.9085370261638500e-01  4.9466600649129533e-01  4.9848865792653690e-01  5.0204613415111754e-01  5.0549617811473602e-01  5.0923369578502564e-01  5.1358196770095499e-01  5.1839051223293209e-01  5.2251819106560526e-01  5.2320780691467494e-01  5.1684860669882315e-01  5.2021865452430538e-01  6.3285907476920278e-01  7.6334282854204316e-01  7.5449885822352569e-01  5.9559331794500237e-01  5.0784778527753005e-01  6.7843249121598803e-01  7.6685387896140977e-01  7.7630631975892106e-01  7.7254184207626531e-01  7.3241960033400644e-01  5.7121421803914796e-01  4.7904236052122146e-01  4.9264572028858622e-01  5.0798836470201203e-01  5.1323077893613156e-01  5.1192469265680030e-01  5.0732024942279408e-01  5.0176952551804399e-01  4.9697200290940419e-01  4.9407176610654824e-01  4.9365075598291386e-01  4.9571973158140059e-01  4.9977392405398730e-01  5.0493258718716116e-01  5.1013879648239147e-01  5.1436317088590866e-01  5.1673697908301564e-01  5.1654549856403942e-01  5.1305400287934910e-01  5.0522128536442390e-01  4.9146404593846488e-01  4.6986655460679289e-01  4.4237165209635632e-01  4.5993500711723279e-01  6.2663404995751759e-01  6.9627190149609575e-01  6.7603784843007186e-01  6.4618538629333122e-01  6.2013714432373446e-01  6.0067241175573360e-01  5.8874949730946580e-01  5.8474260855604610e-01  5.8604743928498459e-01  5.8421345775150912e-01  5.7902638077218482e-01  5.7132217091470527e-01  5.6218976159899536e-01  5.5267272436364867e-01  5.4355134821373907e-01  5.3524159689875006e-01  5.2778841461712234e-01  5.2092286851963643e-01  5.1417428388042663e-01  5.0703701584151506e-01  4.9916896510879372e-01  4.9056566073206304e-01  4.8164335026872312e-01  4.7319099529050468e-01  4.6619941983728608e-01  4.6161956550086258e-01  4.6012282773682167e-01  4.6193119760860196e-01  4.6675994614873934e-01  4.7388188067931303e-01  4.8229071886070507e-01  4.9091921992521004e-01  4.9885810806933134e-01  5.0552425898020226e-01  5.1073974164032476e-01  5.1470483743134765e-01  5.1787406400155100e-01  5.2076878663214177e-01  5.2377741956139723e-01  5.2700068509622067e-01  5.3019350836046697e-01  5.3283571244885908e-01  5.3432700683562184e-01  5.3424464768032698e-01  5.3253803099960795e-01  5.2951496820240807e-01  5.2557646161412641e-01  5.2088612307273974e-01  5.1532535431938409e-01  5.0888964630024247e-01  5.0216999603595380e-01  4.9634631678479169e-01  4.9260587657154392e-01  4.9150373781770457e-01  4.9276331677349428e-01  4.9554942893298765e-01  4.9892589879532290e-01  5.0222383782435132e-01  5.0520692342194995e-01  5.0804107691326017e-01  5.1111804956120332e-01  5.1478023257048122e-01  5.1897765308503807e-01  5.2287234145109429e-01  5.2446265933720493e-01  5.2103484575730485e-01  5.1490475501472899e-01  5.3255964008965517e-01  5.8793497124506011e-01  5.7890480666995914e-01  5.0269423528437795e-01  4.7487005157273238e-01  5.6370125098083457e-01  6.9468295489207832e-01  7.3384751953574900e-01  7.1469682216697139e-01  6.1869722939544858e-01  4.9561253615029677e-01  4.7920520112051235e-01  4.9727337489052692e-01  5.0941013141076097e-01  5.1326635184594971e-01  5.1169268925403100e-01  5.0730386113298565e-01  5.0210291032666055e-01  4.9759160130249863e-01  4.9480199604041813e-01  4.9426452176245794e-01  4.9598833730384040e-01  4.9950789417188612e-01  5.0401030148492698e-01  5.0852052126264247e-01  5.1209210772963454e-01  5.1393498223086587e-01  5.1341701939751794e-01  5.0991388788989500e-01  5.0255589328342842e-01  4.9001776086761639e-01  4.7065455886341895e-01  4.4461811893609543e-01  4.3185122625377204e-01  5.2662885138840010e-01  6.6233053584279733e-01  6.8117500528437369e-01  6.6039849903364090e-01  6.3750656766267932e-01  6.1946558078710912e-01  6.0821789758374267e-01  6.0441417163277267e-01  5.7239130157220375e-01  5.7087841337438983e-01  5.6659304498626983e-01  5.6021166075180318e-01  5.5262491824221960e-01  5.4469755122516605e-01  5.3708281614350362e-01  5.3012714497238123e-01  5.2385650958437491e-01  5.1802489260253515e-01  5.1221549954549650e-01  5.0598841225498370e-01  4.9905137344710121e-01  4.9140674265249101e-01  4.8342098186480909e-01  4.7578393828589199e-01  4.6936368579051879e-01  4.6499905177444206e-01  4.6329118813868386e-01  4.6445309735113133e-01  4.6825596251650636e-01  4.7408222639536413e-01  4.8106719207311277e-01  4.8829052410078794e-01  4.9496958638163757e-01  5.0060830673935275e-01  5.0506699333692961e-01  5.0853793161394678e-01  5.1143482776481153e-01  5.1422606448980823e-01  5.1725716052420334e-01  5.2061335846743684e-01  5.2406761285798686e-01  5.2714153914595996e-01  5.2927454618224890e-01  5.3004788348206955e-01  5.2935802523021203e-01  5.2741990561798124e-01  5.2456446715749461e-01  5.2097642262297050e-01  5.1664449242704158e-01  5.1164457789377193e-01  5.0649020148685009e-01  5.0212069495143807e-01  4.9945524971616950e-01  4.9889820232154758e-01  5.0018320796248050e-01  5.0259369961284650e-01  5.0533871730336799e-01  5.0786204963715353e-01  5.0998544471422291e-01  5.1188618950276010e-01  5.1394872643805467e-01  5.1653479983518946e-01  5.1971255017735318e-01  5.2298751883758177e-01  5.2512928533807290e-01  5.2441303467570355e-01  5.2005369731044948e-01  5.1441029286998607e-01  5.1086202109936496e-01  5.0385548285030546e-01  4.9080720800589223e-01  4.7762625879305942e-01  4.7898189860196555e-01  5.1775143948493962e-01  5.5085770247736343e-01  5.2989162794001043e-01  4.8475126336095686e-01  4.7313587305484173e-01  4.8745215261364766e-01  5.0220821083176370e-01  5.1052597949577005e-01  5.1283694980436589e-01  5.1108269145037388e-01  5.0712391307041271e-01  5.0251283754076881e-01  4.9847937684533639e-01  4.9589521988351554e-01  4.9521562461578522e-01  4.9644829230754312e-01  4.9918781697360115e-01  5.0272495365428282e-01  5.0620948102744390e-01  5.0882078404404329e-01  5.0988654837834857e-01  5.0889461111996914e-01  5.0537492088345015e-01  4.9869086733045981e-01  4.8785945790351620e-01  4.7160964947655987e-01  4.4924030973080464e-01  4.2513885007623414e-01  4.3062273153289371e-01  5.3100964698645525e-01  6.3684016437546798e-01  6.6392929274062706e-01  6.5738481456494646e-01  6.4563943016767467e-01  6.3704447240265571e-01  6.3400593538086614e-01  5.5508658793131027e-01  5.5394714821039159e-01  5.5071699933085716e-01  5.4590227729464491e-01  5.4017775862290307e-01  5.3420761502183622e-01  5.2849669870704408e-01  5.2330503289477515e-01  5.1862909244720345e-01  5.1424084941436654e-01  5.0977570937368943e-01  5.0485826544158918e-01  4.9924271380423868e-01  4.9293038177749937e-01  4.8622412934788856e-01  4.7969515812534474e-01  4.7406612637159862e-01  4.7004250089547633e-01  4.6814054895785534e-01  4.6856042621086291e-01  4.7113807669552293e-01  4.7538628677568245e-01  4.8061110023524783e-01  4.8607152054072517e-01  4.9114157511724271e-01  4.9543505490655115e-01  4.9886339184306677e-01  5.0161385011623683e-01  5.0405500652551183e-01  5.0659500504170885e-01  5.0953101261193201e-01  5.1293276014371503e-01  5.1659784736975722e-01  5.2010105182060618e-01  5.2293288553082107e-01  5.2468421204430937e-01  5.2519457315738460e-01  5.2457345893919727e-01  5.2306672732229142e-01  5.2086946164146330e-01  5.1807264111823237e-01  5.1482733258965097e-01  5.1155535037803679e-01  5.0892811519184733e-01  5.0756361391949256e-01  5.0769183416567465e-01  5.0905271542477659e-01  5.1106129383054955e-01  5.1309051138110318e-01  5.1471077690840272e-01  5.1580717425626055e-01  5.1656704482513960e-01  5.1736348587096259e-01  5.1857163597001310e-01  5.2036138401865084e-01  5.2251928710529449e-01  5.2437620847406419e-01  5.2496680562658593e-01  5.2352879052592649e-01  5.2011628843883329e-01  5.1549845191428267e-01  5.1011249726438423e-01  5.0281617235151466e-01  4.9228613254269971e-01  4.8010116675235376e-01  4.7098221634026499e-01  4.6739354257210647e-01  4.6662225480344455e-01  4.7170395291726003e-01  4.8320751561165554e-01  4.9576179266794573e-01  5.0526949355001660e-01  5.1038261991844069e-01  5.1157049165371860e-01  5.0993043769995783e-01  5.0665827759592563e-01  5.0286363469093187e-01  4.9948607422152291e-01  4.9721654963570860e-01  4.9642366782089259e-01  4.9711529999241671e-01  4.9896066278705448e-01  5.0137783332816266e-01  5.0366890850631718e-01  5.0516539329767862e-01  5.0533465621105866e-01  5.0380126583581608e-01  5.0026212250691171e-01  4.9432346402966010e-01  4.8534971101228574e-01  4.7246531658704827e-01  4.5489728717731748e-01  4.3314463993351959e-01  4.1245552868953816e-01  4.1371901586520349e-01  4.7048371420697926e-01  5.5806350766867907e-01  6.1279295890456664e-01  6.3435996989646526e-01  6.4169086152343813e-01  6.4345254187144207e-01  5.3559180649089122e-01  5.3483086080462772e-01  5.3267851174501124e-01  5.2948814731102589e-01  5.2573604098119919e-01  5.2189482512576402e-01  5.1832003665947857e-01  5.1517770612946223e-01  5.1242416975903238e-01  5.0983707869987027e-01  5.0708994414460784e-01  5.0385639035246566e-01  4.9992189754221361e-01  4.9527388212648027e-01  4.9014187723732999e-01  4.8497129685362972e-01  4.8033364767286052e-01  4.7679594320565954e-01  4.7478523420261232e-01  4.7448612626006947e-01  4.7579942611817616e-01  4.7837211952817832e-01  4.8168883037657256e-01  4.8519896790720485e-01  4.8844590962703699e-01  4.9116568510225761e-01  4.9333134196172779e-01  4.9513301971341250e-01  4.9689972394710669e-01  4.9898352118587808e-01  5.0163712366079427e-01  5.0491924896646079e-01  5.0865761106526708e-01  5.1248655729236459e-01  5.1595496242933203e-01  5.1867145208883880e-01  5.2042702346356740e-01  5.2123083698278994e-01  5.2123763324879280e-01  5.2062760094240723e-01  5.1955249634727785e-01  5.1820154229597171e-01  5.1689564587310821e-01  5.1605765853438745e-01  5.1603087998247477e-01  5.1688620992518208e-01  5.1837124390286315e-01  5.2002514458209514e-01  5.2137166319000638e-01  5.2209097018782180e-01  5.2211564568151936e-01  5.2163491379724281e-01  5.2101162248874910e-01  5.2063530337446962e-01  5.2075580221787598e-01  5.2135395535347051e-01  5.2210480019361427e-01  5.2247669079473713e-01  5.2196192591933088e-01  5.2031105123416876e-01  5.1752999384686149e-01  5.1354157180164450e-01  5.0795432650116756e-01  5.0048591445744572e-01  4.9182056478554953e-01  4.8395246629283567e-01  4.7942283816155395e-01  4.7990307736845961e-01  4.8493184305608367e-01  4.9239411066172778e-01  4.9983479943734949e-01  5.0548999331348388e-01  5.0864703791380983e-01  5.0938857416468386e-01  5.0823447384904907e-01  5.0588776504954580e-01  5.0308735641868363e-01  5.0050504766420323e-01  4.9865493621561785e-01  4.9781924552100704e-01  4.9800929101817942e-01  4.9897653851772128e-01  5.0027642806103700e-01  5.0137281171474746e-01  5.0175590929769220e-01  5.0103533156487423e-01  4.9896926858144580e-01  4.9540903709782796e-01  4.9017604149696259e-01  4.8293495289170907e-01  4.7315946665889413e-01  4.6028269865834354e-01  4.4408245795104934e-01  4.2539986569742655e-01  4.0727530746294521e-01  3.9722918125400081e-01  4.0670573808051019e-01  4.3529477548571671e-01  4.7064791891831403e-01  4.9941696611590836e-01  5.1047102557170843e-01  5.1542957505475595e-01  5.1501563149067009e-01  5.1386050758747703e-01  5.1219985452655836e-01  5.1035216066629452e-01  5.0863058146815643e-01  5.0725806833326981e-01  5.0630870759025748e-01  5.0568961849533145e-01  5.0516706214917961e-01  5.0443021581334535e-01  5.0317744287942456e-01  5.0120408774079195e-01  4.9846952600243538e-01  4.9512525331046292e-01  4.9149460254112520e-01  4.8800658380986722e-01  4.8509888562703113e-01  4.8311492271216688e-01  4.8222330549722248e-01  4.8238288657381262e-01  4.8336341649977160e-01  4.8481522591870813e-01  4.8636734480900723e-01  4.8772664342829336e-01  4.8875198130400749e-01  4.8948512013764256e-01  4.9013146166129906e-01  4.9099593806506375e-01  4.9239039086520875e-01  4.9453646832018433e-01  4.9749066370675465e-01  5.0111441137422896e-01  5.0510178707385511e-01  5.0906089864657889e-01  5.1262484731057067e-01  5.1555079521884795e-01  5.1776389484985019e-01  5.1932901693922007e-01  5.2038080158001498e-01  5.2107323758830837e-01  5.2158198394396105e-01  5.2212272075469179e-01  5.2291862355469676e-01  5.2410603424389768e-01  5.2564413678144317e-01  5.2729952288695303e-01  5.2871527311618272e-01  5.2952443629404333e-01  5.2946651875714557e-01  5.2847990136432321e-01  5.2674020400488342e-01  5.2461352702456587e-01  5.2252681037649618e-01  5.2080858075794501e-01  5.1957289315052624e-01  5.1869326633020452e-01  5.1787052355075536e-01  5.1675936045674986e-01  5.1508384596161483e-01  5.1266735116914253e-01  5.0938172100599000e-01  5.0514198954378231e-01  5.0006775326896646e-01  4.9472869775880085e-01  4.9019641723971702e-01  4.8768858778092505e-01  4.8792647653481352e-01  4.9069761398284328e-01  4.9498460159883390e-01  4.9951266508600972e-01  5.0325563253950789e-01  5.0565085387412201e-01  5.0657368566735161e-01  5.0621325957360741e-01  5.0494612645763171e-01  5.0323056988066162e-01  5.0151500558242967e-01  5.0015756071510342e-01  4.9936401794158358e-01  4.9915409018627016e-01  4.9936290034613179e-01  4.9968002749953316e-01  4.9972220667066614e-01  4.9912482853910450e-01  4.9762377187036783e-01  4.9509253809318560e-01  4.9151101472511477e-01  4.8687300737995876e-01  4.8107759602850553e-01  4.7387329719628246e-01  4.6491472868762684e-01  4.5394551866355143e-01  4.4105399283208896e-01  4.2692752073587870e-01  4.1299043240587785e-01  4.0122951894960412e-01  3.9391717200759097e-01  3.9208477541648007e-01  3.9386047203483604e-01  3.9520624650966740e-01  4.9608468154165647e-01  4.9596211220789022e-01  4.9565350704397215e-01  4.9531875599694247e-01  4.9517063513754112e-01  4.9540875530491535e-01  4.9615319350519255e-01  4.9739682719089090e-01  4.9899123788810218e-01  5.0067189903643750e-01  5.0211644158058077e-01  5.0301948701956034e-01  5.0316346153198122e-01  5.0246810260867925e-01  5.0100867492202628e-01  4.9899997630565018e-01  4.9674892852015257e-01  4.9458451610128384e-01  4.9278064390493809e-01  4.9149248148851227e-01  4.9072583915142154e-01  4.9035011063718620e-01  4.9015111350030516e-01  4.8990707990658977e-01  4.8946469442137369e-01  4.8879385902855116e-01  4.8800731760695082e-01  4.8734085851283082e-01  4.8709911630368702e-01  4.8757990222857456e-01  4.8899571319751739e-01  4.9141326554567966e-01  4.9472897301677460e-01  4.9868963497807584e-01  5.0295454173414533e-01  5.0718092571499518e-01  5.1110414397446191e-01  5.1458376080995571e-01  5.1760178096503362e-01  5.2022499994095506e-01  5.2256130928297972e-01  5.2473147188550073e-01  5.2685062861836862e-01  5.2900031744956910e-01  5.3118933227936682e-01  5.3332464033854254e-01  5.3520942441350616e-01  5.3656489923355932e-01  5.3707257008698117e-01  5.3645296703381773e-01  5.3458556706764637e-01  5.3161332839660658e-01  5.2793793248311516e-01  5.2407667975667149e-01  5.2046503596482474e-01  5.1732337175048970e-01  5.1463996068249040e-01  5.1224216156399949e-01  5.0989721420059042e-01  5.0739455402800182e-01  5.0458795869362238e-01  5.0140974381668013e-01  4.9789487709293923e-01  4.9423764429195799e-01  4.9084319293585976e-01  4.8828776698398269e-01  4.8713666191033655e-01  4.8768872699769233e-01  4.8981081943119237e-01  4.9297993672864726e-01  4.9649350498267619e-01  4.9970431434918605e-01  5.0216822530288707e-01  5.0368597049015429e-01  5.0427538462336952e-01  5.0411157562402631e-01  5.0345608489452687e-01  5.0258663404908832e-01  5.0173707477110485e-01  5.0105419113654148e-01  5.0057265366561110e-01  5.0020746125018289e-01  4.9976742598476154e-01  4.9899680004709401e-01  4.9764455350364378e-01  4.9554150475749831e-01  4.9264909799105072e-01  4.8904837091104159e-01  4.8486708499101061e-01  4.8018017361868237e-01  4.7493942865992583e-01  4.6897914528698653e-01  4.6210897236017417e-01  4.5426125931585459e-01  4.4562810405494674e-01  4.3671910467553493e-01  4.2830311572846841e-01  4.2120634934784318e-01  4.1604694045639340e-01  4.1304278401370798e-01  4.1207822372835434e-01  4.7893024546552354e-01  4.7902940219023954e-01  4.7937417222391582e-01  4.8009065118343797e-01  4.8134050725299238e-01  4.8326170573161803e-01  4.8590902941548969e-01  4.8921169790549002e-01  4.9296290147339988e-01  4.9684782484178946e-01  5.0050340706181473e-01  5.0359076274046777e-01  5.0585787650848613e-01  5.0717772349656265e-01  5.0755841944697344e-01  5.0712883910697770e-01  5.0610384534318731e-01  5.0473320218037132e-01  5.0324216031453795e-01  5.0177820981333432e-01  5.0038150372974466e-01  4.98991071350