<?xml version="1.0"?>
<VTKFile type="UnstructuredGrid"  version="0.1"  >
<UnstructuredGrid>
<Piece  NumberOfPoints="20201" NumberOfCells="40000">
<Points>
<DataArray  type="Float64"  NumberOfComponents="3"  format="ascii">0 0 0  2 0 0  4 0 0  6 0 0  8 0 0  10 0 0  12 0 0  14 0 0  16 0 0  18 0 0  20 0 0  22 0 0  24 0 0  26 0 0  28 0 0  30 0 0  32 0 0  34 0 0  36 0 0  38 0 0  40 0 0  42 0 0  44 0 0  46 0 0  48 0 0  50 0 0  52 0 0  54 0 0  56 0 0  58 0 0  60 0 0  62 0 0  64 0 0  66 0 0  68 0 0  70 0 0  72 0 0  74 0 0  76 0 0  78 0 0  80 0 0  82 0 0  84 0 0  86 0 0  88 0 0  90 0 0  92 0 0  94 0 0  96 0 0  98 0 0  100 0 0  102 0 0  104 0 0  106 0 0  108 0 0  110 0 0  112 0 0  114 0 0  116 0 0  118 0 0  120 0 0  122 0 0  124 0 0  126 0 0  128 0 0  130 0 0  132 0 0  134 0 0  136 0 0  138 0 0  140 0 0  142 0 0  144 0 0  146 0 0  148 0 0  150 0 0  152 0 0  154 0 0  156 0 0  158 0 0  160 0 0  162 0 0  164 0 0  166 0 0  168 0 0  170 0 0  172 0 0  174 0 0  176 0 0  178 0 0  180 0 0  182 0 0  184 0 0  186 0 0  188 0 0  190 0 0  192 0 0  194 0 0  196 0 0  198 0 0  200 0 0  0 2 0  2 2 0  4 2 0  6 2 0  8 2 0  10 2 0  12 2 0  14 2 0  16 2 0  18 2 0  20 2 0  22 2 0  24 2 0  26 2 0  28 2 0  30 2 0  32 2 0  34 2 0  36 2 0  38 2 0  40 2 0  42 2 0  44 2 0  46 2 0  48 2 0  50 2 0  52 2 0  54 2 0  56 2 0  58 2 0  60 2 0  62 2 0  64 2 0  66 2 0  68 2 0  70 2 0  72 2 0  74 2 0  76 2 0  78 2 0  80 2 0  82 2 0  84 2 0  86 2 0  88 2 0  90 2 0  92 2 0  94 2 0  96 2 0  98 2 0  100 2 0  102 2 0  104 2 0  106 2 0  108 2 0  110 2 0  112 2 0  114 2 0  116 2 0  118 2 0  120 2 0  122 2 0  124 2 0  126 2 0  128 2 0  130 2 0  132 2 0  134 2 0  136 2 0  138 2 0  140 2 0  142 2 0  144 2 0  146 2 0  148 2 0  150 2 0  152 2 0  154 2 0  156 2 0  158 2 0  160 2 0  162 2 0  164 2 0  166 2 0  168 2 0  170 2 0  172 2 0  174 2 0  176 2 0  178 2 0  180 2 0  182 2 0  184 2 0  186 2 0  188 2 0  190 2 0  192 2 0  194 2 0  196 2 0  198 2 0  200 2 0  0 4 0  2 4 0  4 4 0  6 4 0  8 4 0  10 4 0  12 4 0  14 4 0  16 4 0  18 4 0  20 4 0  22 4 0  24 4 0  26 4 0  28 4 0  30 4 0  32 4 0  34 4 0  36 4 0  38 4 0  40 4 0  42 4 0  44 4 0  46 4 0  48 4 0  50 4 0  52 4 0  54 4 0  56 4 0  58 4 0  60 4 0  62 4 0  64 4 0  66 4 0  68 4 0  70 4 0  72 4 0  74 4 0  76 4 0  78 4 0  80 4 0  82 4 0  84 4 0  86 4 0  88 4 0  90 4 0  92 4 0  94 4 0  96 4 0  98 4 0  100 4 0  102 4 0  104 4 0  106 4 0  108 4 0  110 4 0  112 4 0  114 4 0  116 4 0  118 4 0  120 4 0  122 4 0  124 4 0  126 4 0  128 4 0  130 4 0  132 4 0  134 4 0  136 4 0  138 4 0  140 4 0  142 4 0  144 4 0  146 4 0  148 4 0  150 4 0  152 4 0  154 4 0  156 4 0  158 4 0  160 4 0  162 4 0  164 4 0  166 4 0  168 4 0  170 4 0  172 4 0  174 4 0  176 4 0  178 4 0  180 4 0  182 4 0  184 4 0  186 4 0  188 4 0  190 4 0  192 4 0  194 4 0  196 4 0  198 4 0  200 4 0  0 6 0  2 6 0  4 6 0  6 6 0  8 6 0  10 6 0  12 6 0  14 6 0  16 6 0  18 6 0  20 6 0  22 6 0  24 6 0  26 6 0  28 6 0  30 6 0  32 6 0  34 6 0  36 6 0  38 6 0  40 6 0  42 6 0  44 6 0  46 6 0  48 6 0  50 6 0  52 6 0  54 6 0  56 6 0  58 6 0  60 6 0  62 6 0  64 6 0  66 6 0  68 6 0  70 6 0  72 6 0  74 6 0  76 6 0  78 6 0  80 6 0  82 6 0  84 6 0  86 6 0  88 6 0  90 6 0  92 6 0  94 6 0  96 6 0  98 6 0  100 6 0  102 6 0  104 6 0  106 6 0  108 6 0  110 6 0  112 6 0  114 6 0  116 6 0  118 6 0  120 6 0  122 6 0  124 6 0  126 6 0  128 6 0  130 6 0  132 6 0  134 6 0  136 6 0  138 6 0  140 6 0  142 6 0  144 6 0  146 6 0  148 6 0  150 6 0  152 6 0  154 6 0  156 6 0  158 6 0  160 6 0  162 6 0  164 6 0  166 6 0  168 6 0  170 6 0  172 6 0  174 6 0  176 6 0  178 6 0  180 6 0  182 6 0  184 6 0  186 6 0  188 6 0  190 6 0  192 6 0  194 6 0  196 6 0  198 6 0  200 6 0  0 8 0  2 8 0  4 8 0  6 8 0  8 8 0  10 8 0  12 8 0  14 8 0  16 8 0  18 8 0  20 8 0  22 8 0  24 8 0  26 8 0  28 8 0  30 8 0  32 8 0  34 8 0  36 8 0  38 8 0  40 8 0  42 8 0  44 8 0  46 8 0  48 8 0  50 8 0  52 8 0  54 8 0  56 8 0  58 8 0  60 8 0  62 8 0  64 8 0  66 8 0  68 8 0  70 8 0  72 8 0  74 8 0  76 8 0  78 8 0  80 8 0  82 8 0  84 8 0  86 8 0  88 8 0  90 8 0  92 8 0  94 8 0  96 8 0  98 8 0  100 8 0  102 8 0  104 8 0  106 8 0  108 8 0  110 8 0  112 8 0  114 8 0  116 8 0  118 8 0  120 8 0  122 8 0  124 8 0  126 8 0  128 8 0  130 8 0  132 8 0  134 8 0  136 8 0  138 8 0  140 8 0  142 8 0  144 8 0  146 8 0  148 8 0  150 8 0  152 8 0  154 8 0  156 8 0  158 8 0  160 8 0  162 8 0  164 8 0  166 8 0  168 8 0  170 8 0  172 8 0  174 8 0  176 8 0  178 8 0  180 8 0  182 8 0  184 8 0  186 8 0  188 8 0  190 8 0  192 8 0  194 8 0  196 8 0  198 8 0  200 8 0  0 10 0  2 10 0  4 10 0  6 10 0  8 10 0  10 10 0  12 10 0  14 10 0  16 10 0  18 10 0  20 10 0  22 10 0  24 10 0  26 10 0  28 10 0  30 10 0  32 10 0  34 10 0  36 10 0  38 10 0  40 10 0  42 10 0  44 10 0  46 10 0  48 10 0  50 10 0  52 10 0  54 10 0  56 10 0  58 10 0  60 10 0  62 10 0  64 10 0  66 10 0  68 10 0  70 10 0  72 10 0  74 10 0  76 10 0  78 10 0  80 10 0  82 10 0  84 10 0  86 10 0  88 10 0  90 10 0  92 10 0  94 10 0  96 10 0  98 10 0  100 10 0  102 10 0  104 10 0  106 10 0  108 10 0  110 10 0  112 10 0  114 10 0  116 10 0  118 10 0  120 10 0  122 10 0  124 10 0  126 10 0  128 10 0  130 10 0  132 10 0  134 10 0  136 10 0  138 10 0  140 10 0  142 10 0  144 10 0  146 10 0  148 10 0  150 10 0  152 10 0  154 10 0  156 10 0  158 10 0  160 10 0  162 10 0  164 10 0  166 10 0  168 10 0  170 10 0  172 10 0  174 10 0  176 10 0  178 10 0  180 10 0  182 10 0  184 10 0  186 10 0  188 10 0  190 10 0  192 10 0  194 10 0  196 10 0  198 10 0  200 10 0  0 12 0  2 12 0  4 12 0  6 12 0  8 12 0  10 12 0  12 12 0  14 12 0  16 12 0  18 12 0  20 12 0  22 12 0  24 12 0  26 12 0  28 12 0  30 12 0  32 12 0  34 12 0  36 12 0  38 12 0  40 12 0  42 12 0  44 12 0  46 12 0  48 12 0  50 12 0  52 12 0  54 12 0  56 12 0  58 12 0  60 12 0  62 12 0  64 12 0  66 12 0  68 12 0  70 12 0  72 12 0  74 12 0  76 12 0  78 12 0  80 12 0  82 12 0  84 12 0  86 12 0  88 12 0  90 12 0  92 12 0  94 12 0  96 12 0  98 12 0  100 12 0  102 12 0  104 12 0  106 12 0  108 12 0  110 12 0  112 12 0  114 12 0  116 12 0  118 12 0  120 12 0  122 12 0  124 12 0  126 12 0  128 12 0  130 12 0  132 12 0  134 12 0  136 12 0  138 12 0  140 12 0  142 12 0  144 12 0  146 12 0  148 12 0  150 12 0  152 12 0  154 12 0  156 12 0  158 12 0  160 12 0  162 12 0  164 12 0  166 12 0  168 12 0  170 12 0  172 12 0  174 12 0  176 12 0  178 12 0  180 12 0  182 12 0  184 12 0  186 12 0  188 12 0  190 12 0  192 12 0  194 12 0  196 12 0  198 12 0  200 12 0  0 14 0  2 14 0  4 14 0  6 14 0  8 14 0  10 14 0  12 14 0  14 14 0  16 14 0  18 14 0  20 14 0  22 14 0  24 14 0  26 14 0  28 14 0  30 14 0  32 14 0  34 14 0  36 14 0  38 14 0  40 14 0  42 14 0  44 14 0  46 14 0  48 14 0  50 14 0  52 14 0  54 14 0  56 14 0  58 14 0  60 14 0  62 14 0  64 14 0  66 14 0  68 14 0  70 14 0  72 14 0  74 14 0  76 14 0  78 14 0  80 14 0  82 14 0  84 14 0  86 14 0  88 14 0  90 14 0  92 14 0  94 14 0  96 14 0  98 14 0  100 14 0  102 14 0  104 14 0  106 14 0  108 14 0  110 14 0  112 14 0  114 14 0  116 14 0  118 14 0  120 14 0  122 14 0  124 14 0  126 14 0  128 14 0  130 14 0  132 14 0  134 14 0  136 14 0  138 14 0  140 14 0  142 14 0  144 14 0  146 14 0  148 14 0  150 14 0  152 14 0  154 14 0  156 14 0  158 14 0  160 14 0  162 14 0  164 14 0  166 14 0  168 14 0  170 14 0  172 14 0  174 14 0  176 14 0  178 14 0  180 14 0  182 14 0  184 14 0  186 14 0  188 14 0  190 14 0  192 14 0  194 14 0  196 14 0  198 14 0  200 14 0  0 16 0  2 16 0  4 16 0  6 16 0  8 16 0  10 16 0  12 16 0  14 16 0  16 16 0  18 16 0  20 16 0  22 16 0  24 16 0  26 16 0  28 16 0  30 16 0  32 16 0  34 16 0  36 16 0  38 16 0  40 16 0  42 16 0  44 16 0  46 16 0  48 16 0  50 16 0  52 16 0  54 16 0  56 16 0  58 16 0  60 16 0  62 16 0  64 16 0  66 16 0  68 16 0  70 16 0  72 16 0  74 16 0  76 16 0  78 16 0  80 16 0  82 16 0  84 16 0  86 16 0  88 16 0  90 16 0  92 16 0  94 16 0  96 16 0  98 16 0  100 16 0  102 16 0  104 16 0  106 16 0  108 16 0  110 16 0  112 16 0  114 16 0  116 16 0  118 16 0  120 16 0  122 16 0  124 16 0  126 16 0  128 16 0  130 16 0  132 16 0  134 16 0  136 16 0  138 16 0  140 16 0  142 16 0  144 16 0  146 16 0  148 16 0  150 16 0  152 16 0  154 16 0  156 16 0  158 16 0  160 16 0  162 16 0  164 16 0  166 16 0  168 16 0  170 16 0  172 16 0  174 16 0  176 16 0  178 16 0  180 16 0  182 16 0  184 16 0  186 16 0  188 16 0  190 16 0  192 16 0  194 16 0  196 16 0  198 16 0  200 16 0  0 18 0  2 18 0  4 18 0  6 18 0  8 18 0  10 18 0  12 18 0  14 18 0  16 18 0  18 18 0  20 18 0  22 18 0  24 18 0  26 18 0  28 18 0  30 18 0  32 18 0  34 18 0  36 18 0  38 18 0  40 18 0  42 18 0  44 18 0  46 18 0  48 18 0  50 18 0  52 18 0  54 18 0  56 18 0  58 18 0  60 18 0  62 18 0  64 18 0  66 18 0  68 18 0  70 18 0  72 18 0  74 18 0  76 18 0  78 18 0  80 18 0  82 18 0  84 18 0  86 18 0  88 18 0  90 18 0  92 18 0  94 18 0  96 18 0  98 18 0  100 18 0  102 18 0  104 18 0  106 18 0  108 18 0  110 18 0  112 18 0  114 18 0  116 18 0  118 18 0  120 18 0  122 18 0  124 18 0  126 18 0  128 18 0  130 18 0  132 18 0  134 18 0  136 18 0  138 18 0  140 18 0  142 18 0  144 18 0  146 18 0  148 18 0  150 18 0  152 18 0  154 18 0  156 18 0  158 18 0  160 18 0  162 18 0  164 18 0  166 18 0  168 18 0  170 18 0  172 18 0  174 18 0  176 18 0  178 18 0  180 18 0  182 18 0  184 18 0  186 18 0  188 18 0  190 18 0  192 18 0  194 18 0  196 18 0  198 18 0  200 18 0  0 20 0  2 20 0  4 20 0  6 20 0  8 20 0  10 20 0  12 20 0  14 20 0  16 20 0  18 20 0  20 20 0  22 20 0  24 20 0  26 20 0  28 20 0  30 20 0  32 20 0  34 20 0  36 20 0  38 20 0  40 20 0  42 20 0  44 20 0  46 20 0  48 20 0  50 20 0  52 20 0  54 20 0  56 20 0  58 20 0  60 20 0  62 20 0  64 20 0  66 20 0  68 20 0  70 20 0  72 20 0  74 20 0  76 20 0  78 20 0  80 20 0  82 20 0  84 20 0  86 20 0  88 20 0  90 20 0  92 20 0  94 20 0  96 20 0  98 20 0  100 20 0  102 20 0  104 20 0  106 20 0  108 20 0  110 20 0  112 20 0  114 20 0  116 20 0  118 20 0  120 20 0  122 20 0  124 20 0  126 20 0  128 20 0  130 20 0  132 20 0  134 20 0  136 20 0  138 20 0  140 20 0  142 20 0  144 20 0  146 20 0  148 20 0  150 20 0  152 20 0  154 20 0  156 20 0
[...]
<PointData  Scalars="f_271-0"> 
<DataArray  type="Float64"  Name="f_271-0"  format="ascii">5.5133086527849817e-01  5.5068871659683849e-01  5.4881100386590886e-01  5.4583443561592948e-01  5.4195782182007290e-01  5.3740678332528258e-01  5.3239820943455107e-01  5.2711316375366646e-01  5.2168419599332894e-01  5.1619895200897770e-01  5.1071769283847812e-01  5.0529881488369954e-01  5.0002445110932292e-01  4.9501818519346080e-01  4.9044890800464447e-01  4.8651848639723483e-01  4.8343531059614259e-01  4.8137975558430501e-01  4.8047000524475947e-01  4.8073684027048874e-01  4.8211383204375174e-01  4.8444552716074551e-01  4.8751172219011485e-01  4.9106202095984980e-01  4.9485254379397631e-01  4.9867647731293019e-01  5.0238210467732791e-01  5.0587548384747927e-01  5.0910908887738326e-01  5.1206137304695587e-01  5.1471434471804933e-01  5.1703625444991608e-01  5.1897437427099125e-01  5.2045929591668427e-01  5.2141842132543237e-01  5.2179374505807241e-01  5.2155855620088787e-01  5.2072924300821632e-01  5.1937081412390051e-01  5.1759645706122082e-01  5.1556151675722217e-01  5.1345126294314791e-01  5.1146144030555885e-01  5.0977223097513724e-01  5.0851945985111902e-01  5.0776934806190355e-01  5.0750236718503194e-01  5.0760700859953856e-01  5.0787713515459942e-01  5.0799972690027173e-01  5.0751507674155649e-01  5.0572816811190702e-01  5.0154449455699823e-01  4.9319993340522028e-01  4.7808365292685734e-01  4.5819415870437841e-01  5.0576775824340647e-01  6.9955402368359776e-01  7.6731013252444402e-01  7.7605936717272839e-01  7.7666447832550889e-01  7.6027965593440616e-01  6.5591944261258606e-01  6.6041935399854612e-01  7.4933198171372317e-01  7.6109575823620379e-01  7.6166366944222252e-01  7.6049050904433546e-01  7.5851106134056578e-01  7.5418047202069494e-01  7.1578657817498659e-01  5.3535926909333842e-01  4.3678443689086649e-01  4.5231997688518188e-01  4.7189789317591024e-01  4.8422724757899110e-01  4.9143507301879302e-01  4.9548972784592005e-01  4.9772821256234645e-01  4.9898921039162020e-01  4.9972272338113155e-01  5.0007116857672829e-01  4.9993431092864898e-01  4.9902267920817311e-01  4.9689927656888488e-01  4.9300745786127126e-01  4.8668242139657503e-01  4.7714273936381874e-01  4.6345806403796452e-01  4.4458675587748131e-01  4.2188832600952514e-01  4.3990053082677022e-01  6.2394020470408340e-01  7.2333147054386615e-01  7.2483576562743579e-01  7.1377640477004312e-01  7.0225746516884158e-01  6.9207445396335432e-01  6.8414123625192635e-01  6.7911089951789638e-01  6.7738836435928040e-01  5.5003298872499706e-01  5.4940744935387786e-01  5.4757846192723281e-01  5.4467961032241519e-01  5.4090505667414146e-01  5.3647493142019920e-01  5.3160048313709096e-01  5.2645753466928624e-01  5.2117410481399762e-01  5.1583406056391523e-01  5.1049445105649904e-01  5.0521070793988188e-01  5.0006191412047996e-01  4.9516829632990261e-01  4.9069506483474495e-01  4.8684030762069663e-01  4.8380897228617803e-01  4.8177887400088881e-01  4.8086704334469116e-01  4.8110488007038810e-01  4.8242845722869299e-01  4.8468652507794535e-01  4.8766434857984320e-01  4.9111766279763003e-01  4.9480873991223406e-01  4.9853638110405046e-01  5.0215356789780907e-01  5.0556998384557827e-01  5.0874070571714258e-01  5.1164595611212105e-01  5.1426891289138454e-01  5.1657858113657606e-01  5.1852264926134051e-01  5.2003174965817933e-01  5.2103284163529073e-01  5.2146688588928847e-01  5.2130549290852524e-01  5.2056273656890606e-01  5.1930070752249347e-01  5.1762907927683210e-01  5.1569906855096825e-01  5.1369123100831671e-01  5.1179619893612616e-01  5.1018906386767715e-01  5.0900120343234656e-01  5.0829572997389538e-01  5.0805197982345940e-01  5.0815984242623391e-01  5.0841780092955735e-01  5.0852199409914911e-01  5.0802928875973719e-01  5.0627492047817180e-01  5.0222203891760075e-01  4.9422157126158361e-01  4.7986993489364882e-01  4.6000254389926204e-01  4.8824291246840740e-01  6.6974038758477228e-01  7.6104192524726744e-01  7.7458028696833425e-01  7.7481088906888340e-01  7.5057168956421683e-01  6.2003700763004232e-01  6.3761273497996829e-01  7.4509205005402723e-01  7.6028445820567025e-01  7.6112495004323943e-01  7.5989594350774992e-01  7.5772080821227916e-01  7.5174775872912891e-01  7.0117734361626760e-01  5.1291342718272714e-01  4.3622784855628488e-01  4.5404427005983783e-01  4.7288722595076482e-01  4.8476874982856261e-01  4.9173944202606718e-01  4.9566808750532215e-01  4.9783567841240517e-01  4.9905044755934602e-01  4.9974701462294413e-01  5.0006202010355683e-01  4.9989603060984195e-01  4.9896523381455804e-01  4.9684229748130432e-01  4.9298419044065878e-01  4.8674467291580376e-01  4.7736877000862316e-01  4.6396734504502057e-01  4.4555765933001618e-01  4.2305041586331293e-01  4.2981537350109322e-01  5.9216645494427489e-01  7.1594555984681796e-01  7.2448864629291765e-01  7.1456906646747775e-01  7.0343806631636319e-01  6.9352818285437334e-01  6.8580053467981594e-01  6.8090180501386299e-01  6.7922481823264158e-01  5.4623876698142737e-01  5.4566168048007369e-01  5.4397488385726067e-01  5.4130297834083307e-01  5.3782674700114008e-01  5.3375048194670405e-01  5.2926910762405865e-01  5.2454321015024996e-01  5.1968755102123065e-01  5.1477485102198017e-01  5.0985260904822804e-01  5.0496740337384716e-01  5.0018922508462749e-01  4.9562835150526546e-01  4.9143915133232757e-01  4.8780863560813092e-01  4.8493169330826097e-01  4.8297867202944222e-01  4.8206323095277631e-01  4.8221854508899786e-01  4.8338792467485786e-01  4.8543229781082164e-01  4.8815278818937080e-01  4.9132293632091584e-01  4.9472291484228259e-01  4.9816790912237902e-01  5.0152466994499656e-01  5.0471357382196957e-01  5.0769744509745041e-01  5.1046184037908204e-01  5.1299351733476650e-01  5.1526382782043190e-01  5.1722178728472268e-01  5.1879822240920892e-01  5.1991884197528193e-01  5.2052159955721822e-01  5.2057318819778975e-01  5.2008088293723309e-01  5.1909819565832804e-01  5.1772447967322843e-01  5.1609886074740374e-01  5.1438813795575800e-01  5.1276807639823696e-01  5.1139899948295853e-01  5.1039938933135232e-01  5.0982331002798975e-01  5.0964669290252429e-01  5.0976323454984618e-01  5.0998433564888890e-01  5.1003172952140940e-01  5.0950822285502451e-01  5.0783165297770250e-01  5.0411895427447262e-01  4.9701792454919469e-01  4.8462730216793237e-01  4.6633440125504133e-01  4.6201714543159561e-01  5.6578866039015496e-01  7.1101826895455789e-01  7.5585016155739637e-01  7.5388958246350657e-01  6.8815037273077062e-01  5.1438278092775080e-01  5.6314937276748667e-01  7.2293406603611066e-01  7.5604876376765373e-01  7.5898062829357982e-01  7.5766664040068255e-01  7.5390584388600235e-01  7.3729140236646684e-01  6.3699060639354765e-01  4.6464824366633528e-01  4.3844439134697788e-01  4.5879519096627724e-01  4.7562486388400516e-01  4.8628620707961179e-01  4.9260344808595835e-01  4.9618214613122619e-01  4.9815161928936530e-01  4.9923627122551956e-01  4.9982806456333889e-01  5.0004774674821773e-01  4.9979854815640340e-01  4.9881310599784728e-01  4.9669188862886027e-01  4.9293071344747247e-01  4.8693566362011043e-01  4.7802473905764292e-01  4.6541859019346149e-01  4.4828220454067719e-01  4.2679135816099045e-01  4.1473576264467660e-01  5.0256894396784002e-01  6.7449620521784925e-01  7.1950588786525860e-01  7.1588619869489534e-01  7.0655603785742371e-01  6.9756710212210071e-01  6.9047772043716349e-01  6.8598172350852227e-01  6.8444422840059105e-01  5.4023797665643802e-01  5.3973723276808705e-01  5.3827462524229941e-01  5.3596101676426677e-01  5.3295667219720178e-01  5.2944148684685721e-01  5.2558507497869833e-01  5.2152417687055719e-01  5.1735254001579556e-01  5.1312493723943631e-01  5.0887325217305612e-01  5.0462947098324762e-01  5.0044865128545846e-01  4.9642490621219626e-01  4.9269520020479951e-01  4.8942893219768180e-01  4.8680510211633893e-01  4.8498229997015579e-01  4.8406885766801078e-01  4.8410065410179953e-01  4.8503221026820692e-01  4.8674336802182827e-01  4.8905993351413440e-01  4.9178323606296276e-01  4.9472149690981476e-01  4.9771572475675013e-01  5.0065455999972774e-01  5.0347559394176133e-01  5.0615434993630637e-01  5.0868533755835066e-01  5.1106148816693064e-01  5.1325830986513887e-01  5.1522725742764708e-01  5.1689969164711647e-01  5.1819946590028187e-01  5.1905981083735986e-01  5.1943959813001150e-01  5.1933524064331438e-01  5.1878653233211214e-01  5.1787636341804344e-01  5.1672467604213212e-01  5.1547659632622700e-01  5.1428462300973832e-01  5.1328607434561702e-01  5.1257936044242158e-01  5.1220435495648986e-01  5.1213134048274966e-01  5.1225919303955481e-01  5.1241799971797164e-01  5.1236655403718456e-01  5.1177321504836804e-01  5.1017042819802527e-01  5.0687939640071678e-01  5.0091781995280926e-01  4.9098213820683806e-01  4.7610564740897715e-01  4.6004837723508646e-01  4.6914651135213048e-01  5.4824306354574015e-01  6.2701441006480041e-01  6.1913221265800022e-01  5.1876160517492076e-01  4.2896467014134582e-01  4.6336332249859707e-01  6.3400943986931180e-01  7.2810230651720431e-01  7.4661936741548096e-01  7.4555886584973241e-01  7.2937096248117550e-01  6.6099977010415267e-01  5.0848890578412498e-01  4.3621397171137860e-01  4.4647893811835554e-01  4.6551827136557872e-01  4.7952971169997860e-01  4.8850366373563892e-01  4.9389933066701064e-01  4.9697755021912138e-01  4.9866031198112715e-01  4.9955398201142204e-01  4.9998969062964582e-01  5.0006594019559303e-01  4.9969110580136444e-01  4.9862355456550950e-01  4.9650638939523567e-01  4.9289412748283684e-01  4.8727016925839106e-01  4.7905625264759788e-01  4.6761935927154108e-01  4.5231244049686886e-01  4.3288916089993562e-01  4.1299441669314102e-01  4.2345973727887048e-01  5.4795391924279635e-01  6.7614425605533823e-01  7.0890699607177488e-01  7.0842866140510696e-01  7.0253161161721855e-01  6.9699033314165360e-01  6.9334187053503060e-01  6.9208408044943448e-01  5.3248630975735101e-01  5.3208374434979500e-01  5.3090974019215675e-01  5.2905828256931320e-01  5.2666432201479685e-01  5.2387744512871581e-01  5.2083549998566969e-01  5.1764486601120330e-01  5.1437201964224966e-01  5.1104790482385998e-01  5.0768322717392766e-01  5.0428996991355213e-01  5.0090282046280366e-01  4.9759417824446522e-01  4.9447802564002336e-01  4.9170083226216194e-01  4.8942111625333051e-01  4.8778239238193760e-01  4.8688613528871166e-01  4.8677153375359639e-01  4.8740715362912013e-01  4.8869661557209387e-01  4.9049685108926266e-01  4.9264437833200692e-01  4.9498315476033627e-01  4.9738738788526549e-01  4.9977423116242947e-01  5.0210412387475079e-01  5.0436988213455614e-01  5.0657860410646316e-01  5.0873220076645331e-01  5.1081240828084085e-01  5.1277447157510359e-01  5.1455084281471197e-01  5.1606316616154313e-01  5.1723858453581795e-01  5.1802574113297806e-01  5.1840678760844228e-01  5.1840351459056089e-01  5.1807730022359155e-01  5.1752322075276880e-01  5.1685858965803144e-01  5.1620632662639265e-01  5.1567468662348859e-01  5.1533673931040214e-01  5.1521423549583645e-01  5.1526967363050447e-01  5.1540711614316070e-01  5.1547776130138212e-01  5.1528253711545968e-01  5.1456301685857631e-01  5.1297499531993640e-01  5.1004704823435654e-01  5.0514240358663132e-01  4.9748126698405548e-01  4.8639466545378912e-01  4.7230770884481793e-01  4.5900158138649338e-01  4.5563882322356314e-01  4.6297223350597988e-01  4.5595122940224853e-01  4.3373375489366206e-01  4.1896763743370818e-01  4.1995283469354550e-01  4.7476963656305832e-01  5.8508900026735544e-01  6.4954356568318872e-01  6.5015903843498946e-01  5.9244002678996177e-01  4.9153801128034619e-01  4.3635446339147316e-01  4.4010319598422848e-01  4.5752785740728075e-01  4.7294007225214868e-01  4.8391705176681765e-01  4.9108382999429662e-01  4.9546892219325578e-01  4.9798848711143079e-01  4.9934589387150158e-01  5.0001825679474898e-01  5.0026910631454502e-01  5.0017309690834666e-01  4.9964682660133075e-01  4.9848138004194675e-01  4.9637263702810375e-01  4.9294636941482789e-01  4.8777719642917716e-01  4.8040343354100756e-01  4.7034402769703909e-01  4.5713619301950564e-01  4.4048523825758990e-01  4.2110232994608199e-01  4.0481258150315241e-01  4.2041557684646430e-01  5.1616733633675127e-01  6.2816349715646769e-01  6.7899135034223146e-01  6.9417678463484755e-01  6.9724384001080075e-01  6.9713589382762886e-01  6.9686371199440533e-01  5.2356739424447596e-01  5.2327738130431567e-01  5.2243467306334579e-01  5.2111510152529628e-01  5.1942621918711251e-01  5.1748448016391513e-01  5.1539249922238262e-01  5.1322230411221836e-01  5.1100871675351944e-01  5.0875420577582853e-01  5.0644350866797405e-01  5.0406377992325224e-01  5.0162458045114822e-01  4.9917202653248349e-01  4.9679288121545889e-01  4.9460696037901297e-01  4.9274929740464035e-01  4.9134626204848336e-01  4.9049151339601904e-01  4.9022781012573452e-01  4.9053924948117211e-01  4.9135584593460957e-01  4.9256920924442843e-01  4.9405528443406205e-01  4.9569841146935695e-01  4.9741078571064073e-01  4.9914277655204420e-01  5.0088210655842202e-01  5.0264291569398278e-01  5.0444841378347771e-01  5.0631242071560711e-01  5.0822515745077079e-01  5.1014716846958830e-01  5.1201269505057379e-01  5.1374101737525535e-01  5.1525218020146701e-01  5.1648277590505332e-01  5.1739815212544715e-01  5.1799896510810883e-01  5.1832152382025609e-01  5.1843223662531912e-01  5.1841674689073625e-01  5.1836466778229495e-01  5.1835176057704424e-01  5.1842275596270937e-01  5.1857881066998968e-01  5.1877275211485796e-01  5.1891253560294881e-01  5.1886964971185057e-01  5.1848626948908338e-01  5.1757449960915991e-01  5.1590424382969546e-01  5.1318368474627185e-01  5.0904860159591736e-01  5.0309475952561944e-01  4.9501117810735068e-01  4.8487514753787159e-01  4.7357267638577272e-01  4.6279375510670900e-01  4.5400248192618631e-01  4.4736080577475285e-01  4.4158753862773931e-01  4.3508593177558263e-01  4.2812047454435365e-01  4.2552470928597519e-01  4.3815496046158398e-01  4.5784174994534571e-01  4.5869350098796063e-01  4.4127201073536010e-01  4.3151223444036230e-01  4.3946063436003630e-01  4.5419555182157895e-01  4.6854528330016854e-01  4.7998299960561835e-01  4.8822524894335401e-01  4.9373897736056821e-01  4.9717697052160370e-01  4.9916259727653867e-01  5.0020253967821826e-01  5.0065284151972100e-01  5.0071292733411654e-01  5.0043626329647362e-01  4.9975092957389788e-01  4.9848493588136139e-01  4.9639189320046062e-01  4.9317383788864294e-01  4.8850011075053329e-01  4.8202412900609398e-01  4.7340327829291773e-01  4.6233166925929897e-01  4.4860974822579203e-01  4.3233245013280314e-01  4.1458887170193875e-01  3.9950610904719264e-01  4.0045976997602206e-01  4.3924933508310487e-01  5.1123360976647381e-01  5.7942730784598662e-01  6.1985347848059391e-01  6.3791246255222367e-01  6.4289924996726167e-01  5.1414489679087461e-01  5.1397372398518326e-01  5.1348139503772816e-01  5.1272614237500258e-01  5.1178871971583373e-01  5.1075271555800605e-01  5.0968509051732813e-01  5.0862217783653096e-01  5.0756482465685726e-01  5.0648385791396555e-01  5.0533431612443791e-01  5.0407459545166811e-01  5.0268537382344580e-01  5.0118320806881578e-01  4.9962503898491284e-01  4.9810216070816832e-01  4.9672493230824033e-01  4.9560193137095682e-01  4.9481873210136346e-01  4.9442162938625955e-01  4.9441037317717740e-01  4.9474164846321128e-01  4.9534225242020508e-01  4.9612842517685746e-01  4.9702624858191008e-01  4.9798784361333187e-01  4.9899931097021510e-01  5.0007863740414304e-01  5.0126451521037640e-01  5.0259945295313924e-01  5.0411202131499167e-01  5.0580316565194772e-01  5.0764020500024465e-01  5.0955983234220392e-01  5.1147886813654453e-01  5.1330952542989472e-01  5.1497512281568480e-01  5.1642264533946647e-01  5.1762987946629391e-01  5.1860632432423881e-01  5.1938814941431621e-01  5.2002806321147510e-01  5.2058145093200037e-01  5.2109089859074331e-01  5.2157212681987497e-01  5.2200475490330189e-01  5.2233047192754722e-01  5.2245893028098667e-01  5.2227867628588442e-01  5.2166801858064094e-01  5.2050034463573736e-01  5.1864104201456718e-01  5.1593908427809676e-01  5.1222465502920056e-01  5.0733238465846731e-01  5.0117166051641482e-01  4.9384853495899311e-01  4.8578700088808346e-01  4.7772013302044225e-01  4.7041271925750372e-01  4.6415756872573377e-01  4.5848987124081830e-01  4.5254937584838340e-01  4.4586464057076608e-01  4.3904588985581927e-01  4.3360205835154986e-01  4.3110421193387088e-01  4.3194579975417113e-01  4.3652534432365542e-01  4.4511503040919059e-01  4.5619564235752119e-01  4.6765945279081617e-01  4.7786573977050928e-01  4.8606356253055938e-01  4.9213149061191486e-01  4.9629957845392197e-01  4.9894783178344509e-01  5.0047865045738527e-01  5.0124096071779156e-01  5.0148994942707747e-01  5.0137138980537010e-01  5.0092300280321556e-01  5.0008716271710985e-01  4.9873008701584248e-01  4.9666318918597357e-01  4.9366324829970676e-01  4.8948987071581879e-01  4.8390127931326038e-01  4.7667214125597795e-01  4.6761913226730167e-01  4.5664101218917796e-01  4.4378491161874817e-01  4.2936115717048673e-01  4.1420461540385656e-01  4.0009415376937341e-01  3.9053169395437015e-01  3.9138741617534778e-01  4.0466932654472071e-01  4.2315270457372600e-01  4.3757128086621561e-01  4.4284396620567373e-01  5.0490891038036712e-01  5.0485491439408847e-01  5.0470874643179342e-01  5.0451315335771618e-01  5.0432500256368118e-01  5.0419799616970429e-01  5.0416576645015043e-01  5.0423009717116674e-01  5.0435760672204832e-01  5.0448594735865593e-01  5.0453804965362370e-01  5.0444083407386375e-01  5.0414365209705514e-01  5.0363178391415009e-01  5.0293157483478446e-01  5.0210591046317732e-01  5.0124117429267623e-01  5.0042898459079610e-01  4.9974732358765572e-01  4.9924580771356025e-01  4.9893875453270325e-01  4.9880765042093883e-01  4.9881214347591613e-01  4.9890643477854146e-01  4.9905652232469289e-01  4.9925355033823565e-01  4.9951958967513072e-01  4.9990423610567292e-01  5.0047290717695325e-01  5.0128996622439470e-01  5.0240118157673697e-01  5.0382014921458274e-01  5.0552213433806514e-01  5.0744667742288418e-01  5.0950791813533480e-01  5.1160965916465628e-01  5.1366128173506154e-01  5.1559089037852035e-01  5.1735320807807350e-01  5.1893119480583694e-01  5.2033161381814697e-01  5.2157564051434924e-01  5.2268624896183091e-01  5.2367472950596738e-01  5.2452923413435748e-01  5.2520832729697808e-01  5.2564167754914726e-01  5.2573812423460187e-01  5.2539883641788210e-01  5.2453112511924027e-01  5.2305786848758740e-01  5.2091938036153407e-01  5.1806897538315433e-01  5.1446920894810555e-01  5.1009991548893574e-01  5.0498726961486107e-01  4.9925017209322120e-01  4.9313581076946417e-01  4.8699367634985674e-01  4.8115259657444437e-01  4.7575111820314042e-01  4.7066534667551008e-01  4.6564350237037833e-01  4.6059041594445549e-01  4.5581499571958495e-01  4.5208914125671790e-01  4.5041683474678407e-01  4.5159965122924478e-01  4.5577724565103239e-01  4.6231292639332194e-01  4.7010564665647403e-01  4.7801040849676590e-01  4.8515958083439709e-01  4.9106142433020267e-01  4.9555896044009123e-01  4.9872851064687301e-01  5.0077587782640143e-01  5.0195124381305123e-01  5.0248833940799953e-01  5.0256639221825050e-01  5.0229116829573839e-01  5.0169111576965975e-01  5.0072468568972361e-01  4.9929485480115837e-01  4.9726689030763016e-01  4.9448592265234159e-01  4.9079225663622866e-01  4.8603446589200289e-01  4.8008255969525560e-01  4.7284487782712065e-01  4.6429195542790452e-01  4.5448801782482773e-01  4.4362795385616050e-01  4.3207139132255867e-01  4.2037253831791271e-01  4.0931091179475593e-01  3.9981199894149316e-01  3.9277590200315571e-01  3.8860590337077994e-01  3.8675772417969340e-01  3.8628626493818924e-01  4.9652100937927590e-01  4.9657536223812210e-01  4.9675003877407292e-01  4.9707554478687593e-01  4.9758948141861536e-01  4.9832070656064231e-01  4.9927403227087319e-01  5.0041994135360501e-01  5.0169247356893309e-01  5.0299625372227774e-01  5.0422121545436205e-01  5.0526156533740907e-01  5.0603444977272638e-01  5.0649388702228670e-01  5.0663674786267354e-01  5.0649957080992669e-01  5.0614726573738267e-01  5.0565673327123073e-01  5.0509962895749572e-01  5.0452863652894220e-01  5.0397064038233230e-01  5.03428333674