<?xml version="1.0"?>
<VTKFile type="UnstructuredGrid"  version="0.1"  >
<UnstructuredGrid>
<Piece  NumberOfPoints="20201" NumberOfCells="40000">
<Points>
<DataArray  type="Float64"  NumberOfComponents="3"  format="ascii">0 0 0  2 0 0  4 0 0  6 0 0  8 0 0  10 0 0  12 0 0  14 0 0  16 0 0  18 0 0  20 0 0  22 0 0  24 0 0  26 0 0  28 0 0  30 0 0  32 0 0  34 0 0  36 0 0  38 0 0  40 0 0  42 0 0  44 0 0  46 0 0  48 0 0  50 0 0  52 0 0  54 0 0  56 0 0  58 0 0  60 0 0  62 0 0  64 0 0  66 0 0  68 0 0  70 0 0  72 0 0  74 0 0  76 0 0  78 0 0  80 0 0  82 0 0  84 0 0  86 0 0  88 0 0  90 0 0  92 0 0  94 0 0  96 0 0  98 0 0  100 0 0  102 0 0  104 0 0  106 0 0  108 0 0  110 0 0  112 0 0  114 0 0  116 0 0  118 0 0  120 0 0  122 0 0  124 0 0  126 0 0  128 0 0  130 0 0  132 0 0  134 0 0  136 0 0  138 0 0  140 0 0  142 0 0  144 0 0  146 0 0  148 0 0  150 0 0  152 0 0  154 0 0  156 0 0  158 0 0  160 0 0  162 0 0  164 0 0  166 0 0  168 0 0  170 0 0  172 0 0  174 0 0  176 0 0  178 0 0  180 0 0  182 0 0  184 0 0  186 0 0  188 0 0  190 0 0  192 0 0  194 0 0  196 0 0  198 0 0  200 0 0  0 2 0  2 2 0  4 2 0  6 2 0  8 2 0  10 2 0  12 2 0  14 2 0  16 2 0  18 2 0  20 2 0  22 2 0  24 2 0  26 2 0  28 2 0  30 2 0  32 2 0  34 2 0  36 2 0  38 2 0  40 2 0  42 2 0  44 2 0  46 2 0  48 2 0  50 2 0  52 2 0  54 2 0  56 2 0  58 2 0  60 2 0  62 2 0  64 2 0  66 2 0  68 2 0  70 2 0  72 2 0  74 2 0  76 2 0  78 2 0  80 2 0  82 2 0  84 2 0  86 2 0  88 2 0  90 2 0  92 2 0  94 2 0  96 2 0  98 2 0  100 2 0  102 2 0  104 2 0  106 2 0  108 2 0  110 2 0  112 2 0  114 2 0  116 2 0  118 2 0  120 2 0  122 2 0  124 2 0  126 2 0  128 2 0  130 2 0  132 2 0  134 2 0  136 2 0  138 2 0  140 2 0  142 2 0  144 2 0  146 2 0  148 2 0  150 2 0  152 2 0  154 2 0  156 2 0  158 2 0  160 2 0  162 2 0  164 2 0  166 2 0  168 2 0  170 2 0  172 2 0  174 2 0  176 2 0  178 2 0  180 2 0  182 2 0  184 2 0  186 2 0  188 2 0  190 2 0  192 2 0  194 2 0  196 2 0  198 2 0  200 2 0  0 4 0  2 4 0  4 4 0  6 4 0  8 4 0  10 4 0  12 4 0  14 4 0  16 4 0  18 4 0  20 4 0  22 4 0  24 4 0  26 4 0  28 4 0  30 4 0  32 4 0  34 4 0  36 4 0  38 4 0  40 4 0  42 4 0  44 4 0  46 4 0  48 4 0  50 4 0  52 4 0  54 4 0  56 4 0  58 4 0  60 4 0  62 4 0  64 4 0  66 4 0  68 4 0  70 4 0  72 4 0  74 4 0  76 4 0  78 4 0  80 4 0  82 4 0  84 4 0  86 4 0  88 4 0  90 4 0  92 4 0  94 4 0  96 4 0  98 4 0  100 4 0  102 4 0  104 4 0  106 4 0  108 4 0  110 4 0  112 4 0  114 4 0  116 4 0  118 4 0  120 4 0  122 4 0  124 4 0  126 4 0  128 4 0  130 4 0  132 4 0  134 4 0  136 4 0  138 4 0  140 4 0  142 4 0  144 4 0  146 4 0  148 4 0  150 4 0  152 4 0  154 4 0  156 4 0  158 4 0  160 4 0  162 4 0  164 4 0  166 4 0  168 4 0  170 4 0  172 4 0  174 4 0  176 4 0  178 4 0  180 4 0  182 4 0  184 4 0  186 4 0  188 4 0  190 4 0  192 4 0  194 4 0  196 4 0  198 4 0  200 4 0  0 6 0  2 6 0  4 6 0  6 6 0  8 6 0  10 6 0  12 6 0  14 6 0  16 6 0  18 6 0  20 6 0  22 6 0  24 6 0  26 6 0  28 6 0  30 6 0  32 6 0  34 6 0  36 6 0  38 6 0  40 6 0  42 6 0  44 6 0  46 6 0  48 6 0  50 6 0  52 6 0  54 6 0  56 6 0  58 6 0  60 6 0  62 6 0  64 6 0  66 6 0  68 6 0  70 6 0  72 6 0  74 6 0  76 6 0  78 6 0  80 6 0  82 6 0  84 6 0  86 6 0  88 6 0  90 6 0  92 6 0  94 6 0  96 6 0  98 6 0  100 6 0  102 6 0  104 6 0  106 6 0  108 6 0  110 6 0  112 6 0  114 6 0  116 6 0  118 6 0  120 6 0  122 6 0  124 6 0  126 6 0  128 6 0  130 6 0  132 6 0  134 6 0  136 6 0  138 6 0  140 6 0  142 6 0  144 6 0  146 6 0  148 6 0  150 6 0  152 6 0  154 6 0  156 6 0  158 6 0  160 6 0  162 6 0  164 6 0  166 6 0  168 6 0  170 6 0  172 6 0  174 6 0  176 6 0  178 6 0  180 6 0  182 6 0  184 6 0  186 6 0  188 6 0  190 6 0  192 6 0  194 6 0  196 6 0  198 6 0  200 6 0  0 8 0  2 8 0  4 8 0  6 8 0  8 8 0  10 8 0  12 8 0  14 8 0  16 8 0  18 8 0  20 8 0  22 8 0  24 8 0  26 8 0  28 8 0  30 8 0  32 8 0  34 8 0  36 8 0  38 8 0  40 8 0  42 8 0  44 8 0  46 8 0  48 8 0  50 8 0  52 8 0  54 8 0  56 8 0  58 8 0  60 8 0  62 8 0  64 8 0  66 8 0  68 8 0  70 8 0  72 8 0  74 8 0  76 8 0  78 8 0  80 8 0  82 8 0  84 8 0  86 8 0  88 8 0  90 8 0  92 8 0  94 8 0  96 8 0  98 8 0  100 8 0  102 8 0  104 8 0  106 8 0  108 8 0  110 8 0  112 8 0  114 8 0  116 8 0  118 8 0  120 8 0  122 8 0  124 8 0  126 8 0  128 8 0  130 8 0  132 8 0  134 8 0  136 8 0  138 8 0  140 8 0  142 8 0  144 8 0  146 8 0  148 8 0  150 8 0  152 8 0  154 8 0  156 8 0  158 8 0  160 8 0  162 8 0  164 8 0  166 8 0  168 8 0  170 8 0  172 8 0  174 8 0  176 8 0  178 8 0  180 8 0  182 8 0  184 8 0  186 8 0  188 8 0  190 8 0  192 8 0  194 8 0  196 8 0  198 8 0  200 8 0  0 10 0  2 10 0  4 10 0  6 10 0  8 10 0  10 10 0  12 10 0  14 10 0  16 10 0  18 10 0  20 10 0  22 10 0  24 10 0  26 10 0  28 10 0  30 10 0  32 10 0  34 10 0  36 10 0  38 10 0  40 10 0  42 10 0  44 10 0  46 10 0  48 10 0  50 10 0  52 10 0  54 10 0  56 10 0  58 10 0  60 10 0  62 10 0  64 10 0  66 10 0  68 10 0  70 10 0  72 10 0  74 10 0  76 10 0  78 10 0  80 10 0  82 10 0  84 10 0  86 10 0  88 10 0  90 10 0  92 10 0  94 10 0  96 10 0  98 10 0  100 10 0  102 10 0  104 10 0  106 10 0  108 10 0  110 10 0  112 10 0  114 10 0  116 10 0  118 10 0  120 10 0  122 10 0  124 10 0  126 10 0  128 10 0  130 10 0  132 10 0  134 10 0  136 10 0  138 10 0  140 10 0  142 10 0  144 10 0  146 10 0  148 10 0  150 10 0  152 10 0  154 10 0  156 10 0  158 10 0  160 10 0  162 10 0  164 10 0  166 10 0  168 10 0  170 10 0  172 10 0  174 10 0  176 10 0  178 10 0  180 10 0  182 10 0  184 10 0  186 10 0  188 10 0  190 10 0  192 10 0  194 10 0  196 10 0  198 10 0  200 10 0  0 12 0  2 12 0  4 12 0  6 12 0  8 12 0  10 12 0  12 12 0  14 12 0  16 12 0  18 12 0  20 12 0  22 12 0  24 12 0  26 12 0  28 12 0  30 12 0  32 12 0  34 12 0  36 12 0  38 12 0  40 12 0  42 12 0  44 12 0  46 12 0  48 12 0  50 12 0  52 12 0  54 12 0  56 12 0  58 12 0  60 12 0  62 12 0  64 12 0  66 12 0  68 12 0  70 12 0  72 12 0  74 12 0  76 12 0  78 12 0  80 12 0  82 12 0  84 12 0  86 12 0  88 12 0  90 12 0  92 12 0  94 12 0  96 12 0  98 12 0  100 12 0  102 12 0  104 12 0  106 12 0  108 12 0  110 12 0  112 12 0  114 12 0  116 12 0  118 12 0  120 12 0  122 12 0  124 12 0  126 12 0  128 12 0  130 12 0  132 12 0  134 12 0  136 12 0  138 12 0  140 12 0  142 12 0  144 12 0  146 12 0  148 12 0  150 12 0  152 12 0  154 12 0  156 12 0  158 12 0  160 12 0  162 12 0  164 12 0  166 12 0  168 12 0  170 12 0  172 12 0  174 12 0  176 12 0  178 12 0  180 12 0  182 12 0  184 12 0  186 12 0  188 12 0  190 12 0  192 12 0  194 12 0  196 12 0  198 12 0  200 12 0  0 14 0  2 14 0  4 14 0  6 14 0  8 14 0  10 14 0  12 14 0  14 14 0  16 14 0  18 14 0  20 14 0  22 14 0  24 14 0  26 14 0  28 14 0  30 14 0  32 14 0  34 14 0  36 14 0  38 14 0  40 14 0  42 14 0  44 14 0  46 14 0  48 14 0  50 14 0  52 14 0  54 14 0  56 14 0  58 14 0  60 14 0  62 14 0  64 14 0  66 14 0  68 14 0  70 14 0  72 14 0  74 14 0  76 14 0  78 14 0  80 14 0  82 14 0  84 14 0  86 14 0  88 14 0  90 14 0  92 14 0  94 14 0  96 14 0  98 14 0  100 14 0  102 14 0  104 14 0  106 14 0  108 14 0  110 14 0  112 14 0  114 14 0  116 14 0  118 14 0  120 14 0  122 14 0  124 14 0  126 14 0  128 14 0  130 14 0  132 14 0  134 14 0  136 14 0  138 14 0  140 14 0  142 14 0  144 14 0  146 14 0  148 14 0  150 14 0  152 14 0  154 14 0  156 14 0  158 14 0  160 14 0  162 14 0  164 14 0  166 14 0  168 14 0  170 14 0  172 14 0  174 14 0  176 14 0  178 14 0  180 14 0  182 14 0  184 14 0  186 14 0  188 14 0  190 14 0  192 14 0  194 14 0  196 14 0  198 14 0  200 14 0  0 16 0  2 16 0  4 16 0  6 16 0  8 16 0  10 16 0  12 16 0  14 16 0  16 16 0  18 16 0  20 16 0  22 16 0  24 16 0  26 16 0  28 16 0  30 16 0  32 16 0  34 16 0  36 16 0  38 16 0  40 16 0  42 16 0  44 16 0  46 16 0  48 16 0  50 16 0  52 16 0  54 16 0  56 16 0  58 16 0  60 16 0  62 16 0  64 16 0  66 16 0  68 16 0  70 16 0  72 16 0  74 16 0  76 16 0  78 16 0  80 16 0  82 16 0  84 16 0  86 16 0  88 16 0  90 16 0  92 16 0  94 16 0  96 16 0  98 16 0  100 16 0  102 16 0  104 16 0  106 16 0  108 16 0  110 16 0  112 16 0  114 16 0  116 16 0  118 16 0  120 16 0  122 16 0  124 16 0  126 16 0  128 16 0  130 16 0  132 16 0  134 16 0  136 16 0  138 16 0  140 16 0  142 16 0  144 16 0  146 16 0  148 16 0  150 16 0  152 16 0  154 16 0  156 16 0  158 16 0  160 16 0  162 16 0  164 16 0  166 16 0  168 16 0  170 16 0  172 16 0  174 16 0  176 16 0  178 16 0  180 16 0  182 16 0  184 16 0  186 16 0  188 16 0  190 16 0  192 16 0  194 16 0  196 16 0  198 16 0  200 16 0  0 18 0  2 18 0  4 18 0  6 18 0  8 18 0  10 18 0  12 18 0  14 18 0  16 18 0  18 18 0  20 18 0  22 18 0  24 18 0  26 18 0  28 18 0  30 18 0  32 18 0  34 18 0  36 18 0  38 18 0  40 18 0  42 18 0  44 18 0  46 18 0  48 18 0  50 18 0  52 18 0  54 18 0  56 18 0  58 18 0  60 18 0  62 18 0  64 18 0  66 18 0  68 18 0  70 18 0  72 18 0  74 18 0  76 18 0  78 18 0  80 18 0  82 18 0  84 18 0  86 18 0  88 18 0  90 18 0  92 18 0  94 18 0  96 18 0  98 18 0  100 18 0  102 18 0  104 18 0  106 18 0  108 18 0  110 18 0  112 18 0  114 18 0  116 18 0  118 18 0  120 18 0  122 18 0  124 18 0  126 18 0  128 18 0  130 18 0  132 18 0  134 18 0  136 18 0  138 18 0  140 18 0  142 18 0  144 18 0  146 18 0  148 18 0  150 18 0  152 18 0  154 18 0  156 18 0  158 18 0  160 18 0  162 18 0  164 18 0  166 18 0  168 18 0  170 18 0  172 18 0  174 18 0  176 18 0  178 18 0  180 18 0  182 18 0  184 18 0  186 18 0  188 18 0  190 18 0  192 18 0  194 18 0  196 18 0  198 18 0  200 18 0  0 20 0  2 20 0  4 20 0  6 20 0  8 20 0  10 20 0  12 20 0  14 20 0  16 20 0  18 20 0  20 20 0  22 20 0  24 20 0  26 20 0  28 20 0  30 20 0  32 20 0  34 20 0  36 20 0  38 20 0  40 20 0  42 20 0  44 20 0  46 20 0  48 20 0  50 20 0  52 20 0  54 20 0  56 20 0  58 20 0  60 20 0  62 20 0  64 20 0  66 20 0  68 20 0  70 20 0  72 20 0  74 20 0  76 20 0  78 20 0  80 20 0  82 20 0  84 20 0  86 20 0  88 20 0  90 20 0  92 20 0  94 20 0  96 20 0  98 20 0  100 20 0  102 20 0  104 20 0  106 20 0  108 20 0  110 20 0  112 20 0  114 20 0  116 20 0  118 20 0  120 20 0  122 20 0  124 20 0  126 20 0  128 20 0  130 20 0  132 20 0  134 20 0  136 20 0  138 20 0  140 20 0  142 20 0  144 20 0  146 20 0  148 20 0  150 20 0  152 20 0  154 20 0  156 20 0
[...]
<PointData  Scalars="f_271-0"> 
<DataArray  type="Float64"  Name="f_271-0"  format="ascii">6.3059434015659832e-01  6.2587459211312468e-01  6.1339014754405030e-01  5.9693264646946043e-01  5.8001818696741936e-01  5.6457296061238993e-01  5.5126035875501755e-01  5.4030076458693066e-01  5.3178200092885386e-01  5.2538007350678728e-01  5.1995902195535348e-01  5.1369644980446572e-01  5.0494600280763446e-01  4.9316913363158471e-01  4.7922778302137786e-01  4.6506363537755757e-01  4.5310275100403774e-01  4.4559132639143073e-01  4.4400696745597212e-01  4.4870982376674962e-01  4.5891632136764443e-01  4.7294111597412131e-01  4.8859494827894639e-01  5.0364573684582492e-01  5.1626761045751612e-01  5.2539340307963123e-01  5.3088533343774724e-01  5.3347335456366463e-01  5.3447225162884371e-01  5.3535079959511234e-01  5.3726693969938666e-01  5.4068875520558923e-01  5.4519016324845893e-01  5.4946551178933911e-01  5.5159985501433750e-01  5.4967959806916644e-01  5.4282619968556856e-01  5.3248336520646844e-01  5.2302894619389206e-01  5.1922452385356188e-01  5.1797879513114320e-01  5.0679198073086407e-01  4.8558866487366570e-01  4.6821906997365248e-01  4.6138343707303453e-01  4.6335376239168613e-01  4.7017056108366545e-01  4.7843437878006606e-01  4.8592748016037196e-01  4.9160323096001951e-01  4.9545813601772987e-01  4.9833820535950235e-01  5.0161524726668738e-01  5.0672591898364217e-01  5.1464384781254158e-01  5.2536598604637452e-01  5.3741677120701103e-01  5.4733982067147446e-01  5.5274933188954223e-01  5.9307336225310625e-01  7.2911465745867543e-01  7.6571016758049659e-01  6.3291277204821006e-01  5.3386936953776987e-01  6.1753215503969006e-01  7.2321887796050355e-01  7.3298626624858443e-01  7.2582939775383792e-01  6.6735054214278799e-01  5.3854392170138587e-01  5.1406017208362564e-01  5.2719088336214015e-01  5.3147179283425228e-01  5.2773309612302399e-01  5.1907278650500188e-01  5.0792065508412654e-01  4.9672793730071801e-01  4.8782638533514538e-01  4.8299740403337887e-01  4.8313488172157637e-01  4.8810743906907123e-01  4.9682366658052857e-01  5.0748590071439958e-01  5.1800033861055939e-01  5.2647259554534720e-01  5.3167065806369340e-01  5.3328294580162372e-01  5.3174089499324939e-01  5.2738205274046468e-01  5.1897476598056758e-01  5.0239328553443596e-01  4.7386310229455214e-01  4.7464885498109427e-01  6.1014922404170102e-01  6.6197845158713942e-01  6.2751575887971955e-01  5.9067860960164986e-01  5.6334295006521418e-01  5.4440080466865426e-01  5.3281437438833068e-01  5.2883560808474117e-01  6.2566895087481156e-01  6.2127350968954809e-01  6.0957838589473079e-01  5.9401327847787355e-01  5.7785487240078803e-01  5.6298807094897030e-01  5.5011777544062335e-01  5.3947846999090010e-01  5.3112655436009237e-01  5.2471865885002311e-01  5.1918321176578275e-01  5.1284078503655317e-01  5.0416661723574141e-01  4.9264194620235408e-01  4.7905866667560210e-01  4.6525201911098418e-01  4.5354584501059508e-01  4.4611194601257015e-01  4.4439551411605371e-01  4.4876889515991275e-01  4.5849551896761531e-01  4.7195656554161697e-01  4.8703515444127665e-01  5.0156677445865316e-01  5.1377912878490961e-01  5.2263693053451210e-01  5.2800842894358968e-01  5.3060513220737926e-01  5.3170605340440968e-01  5.3273810831777679e-01  5.3482367142630849e-01  5.3841191628919216e-01  5.4308086523698107e-01  5.4755420196624760e-01  5.4996895227171672e-01  5.4847327943039548e-01  5.4223016131479607e-01  5.3266272516741997e-01  5.2404811078704383e-01  5.2104976403361281e-01  5.2063974258701395e-01  5.1031682881053375e-01  4.8963158797527861e-01  4.7233033508847744e-01  4.6529281139348749e-01  4.6691915693005426e-01  4.7333148885066956e-01  4.8118830371306848e-01  4.8830513496005407e-01  4.9364463687315002e-01  4.9719334199303172e-01  4.9977328609578331e-01  5.0272478411525334e-01  5.0745595942371835e-01  5.1493065860744935e-01  5.2517903561825952e-01  5.3685333221084741e-01  5.4685128422265661e-01  5.5245558569495135e-01  5.7501433420568249e-01  6.6261672842531738e-01  6.9210075467380971e-01  5.9400918572881001e-01  5.3011067866459205e-01  5.8649009495471016e-01  6.9666997251866158e-01  7.2172947355885175e-01  7.0551432660947677e-01  6.2512728729946876e-01  5.2343809703699451e-01  5.1510243648213927e-01  5.2761219369898349e-01  5.3122968248433355e-01  5.2743581738370249e-01  5.1898555573757543e-01  5.0814639781411686e-01  4.9725499091139080e-01  4.8855261268485273e-01  4.8376336746176696e-01  4.8376062810544351e-01  4.8842509204231804e-01  4.9670316154713368e-01  5.0685285973852567e-01  5.1684349025633380e-01  5.2483694416448523e-01  5.2963465764423701e-01  5.3092624790327769e-01  5.2912693834261437e-01  5.2460268935404963e-01  5.1630651901540225e-01  5.0053069957343566e-01  4.7331809279740150e-01  4.6378149019009507e-01  5.7976557303929055e-01  6.5813166708909121e-01  6.3307243416987113e-01  5.9707985187535240e-01  5.6907696692314258e-01  5.4938277358923537e-01  5.3730323650332779e-01  5.3315934995895897e-01  6.1178241964434310e-01  6.0821474525553409e-01  5.9856924038382353e-01  5.8539190631639704e-01  5.7132985458699603e-01  5.5811848679899878e-01  5.4654497607614982e-01  5.3688286819735576e-01  5.2912334068658251e-01  5.2287890358698963e-01  5.1722112891212524e-01  5.1080370981977163e-01  5.0240836478277096e-01  4.9159354714046083e-01  4.7899681509726139e-01  4.6618358073099975e-01  4.5520025174588885e-01  4.4800656845146392e-01  4.4594723447608603e-01  4.4941796889517921e-01  4.5780624419815880e-01  4.6967734907516490e-01  4.8311955434275905e-01  4.9616221115830456e-01  5.0718750639205923e-01  5.1525232695871281e-01  5.2024275458927616e-01  5.2281791601645866e-01  5.2415498179762043e-01  5.2556203691413161e-01  5.2806134514730574e-01  5.3205057390778410e-01  5.3712300485949671e-01  5.4208959557767267e-01  5.4523574725737523e-01  5.4487545612334143e-01  5.4025515391113421e-01  5.3264451078551789e-01  5.2580725226458547e-01  5.2377825488598817e-01  5.2398513584162321e-01  5.1566439316354373e-01  4.9779129432878744e-01  4.8216132644108639e-01  4.7541718160280955e-01  4.7648846437484116e-01  4.8195183426025767e-01  4.8875166880893983e-01  4.9485477720972249e-01  4.9927757110465415e-01  5.0199142833730559e-01  5.0375451485286438e-01  5.0581610567513058e-01  5.0949850122089979e-01  5.1573044670177048e-01  5.2462088641078497e-01  5.3513113246338495e-01  5.4493412192698110e-01  5.5139748077795858e-01  5.5700767759326808e-01  5.7202688055628403e-01  5.7676803300930612e-01  5.5256122105771488e-01  5.3026589150397796e-01  5.3379030257445959e-01  5.8940814089502813e-01  6.2567575497559025e-01  5.9688796251246545e-01  5.3237081418130272e-01  5.0765273834536884e-01  5.1817594733343164e-01  5.2801973749504261e-01  5.3016721787268384e-01  5.2635501646080196e-01  5.1855553559681900e-01  5.0863188441566887e-01  4.9861925334063778e-01  4.9051384232045908e-01  4.8587929804371988e-01  4.8552716288489711e-01  4.8936772103045700e-01  4.9645173434548434e-01  5.0519445945127395e-01  5.1374504517690955e-01  5.2042758580028958e-01  5.2414465851575132e-01  5.2460155634244554e-01  5.2218186934829824e-01  5.1732549208278400e-01  5.0943225542106663e-01  4.9579701412920613e-01  4.7260745686726935e-01  4.4881412752883099e-01  4.9804685791784664e-01  6.2032484554958756e-01  6.4228943177897690e-01  6.1541164957016925e-01  5.8750816784448345e-01  5.6638165988274924e-01  5.5316554113122263e-01  5.4862069140641290e-01  5.9124848443563982e-01  5.8869261369644310e-01  5.8162853819596272e-01  5.7162250842154461e-01  5.6052999025994599e-01  5.4980573313709324e-01  5.4026916034694006e-01  5.3223454930411562e-01  5.2564181621702177e-01  5.2006636526240491e-01  5.1472040908181482e-01  5.0860089930102603e-01  5.0084370959854863e-01  4.9114382382969562e-01  4.7999804937953477e-01  4.6864731167957946e-01  4.5876195785901364e-01  4.5198884513495191e-01  4.4950434828256802e-01  4.5171156283292191e-01  4.5815935280957570e-01  4.6767590074003917e-01  4.7865563056243393e-01  4.8942378316662594e-01  4.9860068348032927e-01  5.0538618837952054e-01  5.0969541302979882e-01  5.1210939004677336e-01  5.1365242276567902e-01  5.1545508335474410e-01  5.1839237042553754e-01  5.2279073733732229e-01  5.2827550492395126e-01  5.3379783106706868e-01  5.3786679652462488e-01  5.3902407711289579e-01  5.3657605390223440e-01  5.3141250056845790e-01  5.2624230550107798e-01  5.2383756814047311e-01  5.2267469407013489e-01  5.1641219157661977e-01  5.0419196396252264e-01  4.9322713659795647e-01  4.8844702730309852e-01  4.8952937751752129e-01  4.9400687348051936e-01  4.9944902464502616e-01  5.0415903119872096e-01  5.0729550840013660e-01  5.0883983464181104e-01  5.0946534256244691e-01  5.1028020564021748e-01  5.1246447081298130e-01  5.1687404209895582e-01  5.2369705135871525e-01  5.3223775755579927e-01  5.4092441170820971e-01  5.4779570080370843e-01  5.5173722322043572e-01  5.5307172719509134e-01  5.5177706390318715e-01  5.4616073153473599e-01  5.3477424076602964e-01  5.2041275716991653e-01  5.1288227982888923e-01  5.1097313873200534e-01  5.0338479789877477e-01  5.0066169772603630e-01  5.0975870552420310e-01  5.2057879767876369e-01  5.2675788323754691e-01  5.2759962607743427e-01  5.2409454569508018e-01  5.1741147806354459e-01  5.0893492809699670e-01  5.0030493557758648e-01  4.9317942349819599e-01  4.8888765714363214e-01  4.8814017026895906e-01  4.9088012746871962e-01  4.9630717735459018e-01  5.0306980634615006e-01  5.0958787668416949e-01  5.1443346609927609e-01  5.1667324194056419e-01  5.1605981106578003e-01  5.1295237336766919e-01  5.0787088258613022e-01  5.0070063777721385e-01  4.8985409756732673e-01  4.7235693816010127e-01  4.4794205159214495e-01  4.3774446639402359e-01  5.0405879376003770e-01  5.9968719069353960e-01  6.2508540070166996e-01  6.1338615855540779e-01  5.9624169280096673e-01  5.8375549733090326e-01  5.7927863966833071e-01  5.6683629119245837e-01  5.6520194626964959e-01  5.6057970400908608e-01  5.5378421890805973e-01  5.4595847872221392e-01  5.3818955585010275e-01  5.3121726054890583e-01  5.2535583762467042e-01  5.2052112140495455e-01  5.1628416136077149e-01  5.1196856282587933e-01  5.0682274372784464e-01  5.0026256240331268e-01  4.9212133289121596e-01  4.8280178758623388e-01  4.7325078409410376e-01  4.6475164943311381e-01  4.5859707946112194e-01  4.5574671498108366e-01  4.5657767978592911e-01  4.6079752804622265e-01  4.6752934428895332e-01  4.7553170432929920e-01  4.8349292273782579e-01  4.9033022430488205e-01  4.9542400525984426e-01  4.9872941869325776e-01  5.0073602461485200e-01  5.0228588925073236e-01  5.0429889778341075e-01  5.0747864451690838e-01  5.1207549040858180e-01  5.1776585321115609e-01  5.2368032373349782e-01  5.2859632222005570e-01  5.3130702823494147e-01  5.3114724993574114e-01  5.2851764763453757e-01  5.2495191583520440e-01  5.2205108710860626e-01  5.1950649323948717e-01  5.1515736843941795e-01  5.0884593836217029e-01  5.0360723825512999e-01  5.0188650984156413e-01  5.0363384238436870e-01  5.0736766194606231e-01  5.1143942548285304e-01  5.1462528325482026e-01  5.1631857043366625e-01  5.1655594764228363e-01  5.1592542610892012e-01  5.1535889565732740e-01  5.1584401358241261e-01  5.1811831581894474e-01  5.2241338980778507e-01  5.2831450103222832e-01  5.3480504130661521e-01  5.4056486665674852e-01  5.4448216467935218e-01  5.4603558545396746e-01  5.4503977128627812e-01  5.4099982093194832e-01  5.3323966681812518e-01  5.2225242057944810e-01  5.1077210746301027e-01  5.0289365760172344e-01  5.0141838354061008e-01  5.0588855973888203e-01  5.1299860735795322e-01  5.1926970362445968e-01  5.2279631894188427e-01  5.2310496108810522e-01  5.2039699624350599e-01  5.1525853729043192e-01  5.0864221877628779e-01  5.0178202416227602e-01  4.9596629883550164e-01  4.9225143204941424e-01  4.9121686065080694e-01  4.9283129503634016e-01  4.9646418812977583e-01  5.0104113961024332e-01  5.0530743559244784e-01  5.0813611558379013e-01  5.0880126843349827e-01  5.0713280263920024e-01  5.0347374263615952e-01  4.9838400072797251e-01  4.9210270136183859e-01  4.8393772802501472e-01  4.7203344750278409e-01  4.5442782358793982e-01  4.3314963600877826e-01  4.2449273229350337e-01  4.6090931877872132e-01  5.3064819418507425e-01  5.7888315566875803e-01  5.9727836258959210e-01  6.0201721464360036e-01  6.0270539346801388e-01  5.4083386321539417e-01  5.3991734561667981e-01  5.3727730507955007e-01  5.3328681741491724e-01  5.2858053007944050e-01  5.2387635007793232e-01  5.1973404575713700e-01  5.1640204344874086e-01  5.1377944539874898e-01  5.1146626429816566e-01  5.0888387170131100e-01  5.0544373568631440e-01  5.0072964136461917e-01  4.9465176653889575e-01  4.8752810321524254e-01  4.8005795911719495e-01  4.7318102325073441e-01  4.6785424830611622e-01  4.6481052399808959e-01  4.6437292657187146e-01  4.6637980099075466e-01  4.7023754084890790e-01  4.7507899910843593e-01  4.7998117380064242e-01  4.8418756204916363e-01  4.8728232236660596e-01  4.8927324129608812e-01  4.9056102840489996e-01  4.9180206553559663e-01  4.9370134349011624e-01  4.9679113231076888e-01  5.0125320723800426e-01  5.0682961822706363e-01  5.1284670779548869e-01  5.1835961111861462e-01  5.2241175791670535e-01  5.2437551471360300e-01  5.2426039720207074e-01  5.2275349495593493e-01  5.2076579661561739e-01  5.1872858998868532e-01  5.1656510658283494e-01  5.1457953625208652e-01  5.1373042287631177e-01  5.1469439252268667e-01  5.1722079776596819e-01  5.2040478761114461e-01  5.2323121242385695e-01  5.2494138122815126e-01  5.2520329227672402e-01  5.2414592830099704e-01  5.2228396571356006e-01  5.2035876063505115e-01  5.1913579721295000e-01  5.1919922437369292e-01  5.2078128001842483e-01  5.2366948614169706e-01  5.2723659329452843e-01  5.3061460428481144e-01  5.3296256665523822e-01  5.3368036588967205e-01  5.3243389636665539e-01  5.2907054791693742e-01  5.2368328412780385e-01  5.1692517573241414e-01  5.1027601113539311e-01  5.0568905395756414e-01  5.0449051586757587e-01  5.0646316586525675e-01  5.1013833827795718e-01  5.1382142449511337e-01  5.1628180303976057e-01  5.1686323451071592e-01  5.1538846782577075e-01  5.1209575613490832e-01  5.0759101307734511e-01  5.0273627245725916e-01  4.9846045560091412e-01  4.9553861417667028e-01  4.9440352282003597e-01  4.9504132937111478e-01  4.9699729755832184e-01  4.9948947405817329e-01  5.0160367436288933e-01  5.0252427958108437e-01  5.0174225009820228e-01  4.9917694823011394e-01  4.9515639932796762e-01  4.9022542872186303e-01  4.8479697229365898e-01  4.7874060540045710e-01  4.7112318272197234e-01  4.6043146826500064e-01  4.4561360192091054e-01  4.2802489896143919e-01  4.1404837169380060e-01  4.1524249250072665e-01  4.3556904376134353e-01  4.6709665582511006e-01  4.9618179592802542e-01  5.0802645262801926e-01  5.1487826801058945e-01  5.1448676402699367e-01  5.1335275507020073e-01  5.1164073669125298e-01  5.0967879033790564e-01  5.0788188776206744e-01  5.0659213121253643e-01  5.0594135646203331e-01  5.0579638635550606e-01  5.0579384673697614e-01  5.0544482484908826e-01  5.0427326578513076e-01  5.0194895601453393e-01  4.9838666418106442e-01  4.9379205969367657e-01  4.8863940047067356e-01  4.8357759765728003e-01  4.7928203737208552e-01  4.7628922349545810e-01  4.7486265291877000e-01  4.7493533919304365e-01  4.7614907647218702e-01  4.7797148929179123e-01  4.7984733056901219e-01  4.8134295750138090e-01  4.8225497515075882e-01  4.8266044713174633e-01  4.8289346581394027e-01  4.8345039583917621e-01  4.8484770679690214e-01  4.8746982820269719e-01  4.9144596979229005e-01  4.9658749105730798e-01  5.0240437448334430e-01  5.0820382553377230e-01  5.1325891524203704e-01  5.1701633731387597e-01  5.1928003708979920e-01  5.2027366863614877e-01  5.2051261228936685e-01  5.2056167683628096e-01  5.2088588255749946e-01  5.2185372829954346e-01  5.2369224307664486e-01  5.2632562271532768e-01  5.2931455654283432e-01  5.3200808804717836e-01  5.3378356312255437e-01  5.3423481227470171e-01  5.3325955302842354e-01  5.3105608114487890e-01  5.2805973333440714e-01  5.2484022822472576e-01  5.2197152288060344e-01  5.1989800194331359e-01  5.1882869306520452e-01  5.1868445512545935e-01  5.1911738777382566e-01  5.1960861385936474e-01  5.1961711586556292e-01  5.1871955432286376e-01  5.1669059027727260e-01  5.1353181776869472e-01  5.0950277497881857e-01  5.0516798669031271e-01  5.0136804460769990e-01  4.9898927500763035e-01  4.9857259526796577e-01  5.0003304965320616e-01  5.0271890126130736e-01  5.0572861111781720e-01  5.0822581866570715e-01  5.0961660480138771e-01  5.0961959633405340e-01  5.0828208918482642e-01  5.0594711629508515e-01  5.0315940977670437e-01  5.0052076819320734e-01  4.9853384560490266e-01  4.9748073220838834e-01  4.9736374973671316e-01  4.9790943084491385e-01  4.9862741350037820e-01  4.9892229286187756e-01  4.9825086203659030e-01  4.9628757976443566e-01  4.9303283858379160e-01  4.8880566626766508e-01  4.8410655035198158e-01  4.7938543850400589e-01  4.7478294759970335e-01  4.6994331351481666e-01  4.6403116580958159e-01  4.5606111893904033e-01  4.4551256612323897e-01  4.3299358050834003e-01  4.2054501355978907e-01  4.1150908739573017e-01  4.0877610344822563e-01  4.1143815148012347e-01  4.1366490949317408e-01  4.9038718896851968e-01  4.9037035815097929e-01  4.9034431170425474e-01  4.9039984956314014e-01  4.9070845612936748e-01  4.9148002805920415e-01  4.9286959335866903e-01  4.9488251927210808e-01  4.9732749596373610e-01  4.9984502386012719e-01  5.0200095676392509e-01  5.0339687478564588e-01  5.0375190197738529e-01  5.0294927891452956e-01  5.0106062466898016e-01  4.9834445446645559e-01  4.9520309369000787e-01  4.9209463095149752e-01  4.8941593494697144e-01  4.8739114692061447e-01  4.8601630051943784e-01  4.8509513421530137e-01  4.8434410359479763e-01  4.8350531264181740e-01  4.8242707656238948e-01  4.8110966807905792e-01  4.7971997707361669e-01  4.7856865984533042e-01  4.7804804145057894e-01  4.7854340095642184e-01  4.8033732632327109e-01  4.8352850407281228e-01  4.8798772391962264e-01  4.9336860536351856e-01  4.9917479799476089e-01  5.0486834024463323e-01  5.0999446526674852e-01  5.1429277539257245e-01  5.1775884079136347e-01  5.2062542396506606e-01  5.2326234192569487e-01  5.2603210130664546e-01  5.2915145736450886e-01  5.3259896070916435e-01  5.3610015961985780e-01  5.3920684075337055e-01  5.4144838862701583e-01  5.4248634723879408e-01  5.4217518423858668e-01  5.4049466535350177e-01  5.3749893034143137e-01  5.3342979043347793e-01  5.2879935732426797e-01  5.2420707335408789e-01  5.2008231016655249e-01  5.1659717608997169e-01  5.1371165121450513e-01  5.1124478396563500e-01  5.0894453105658743e-01  5.0655836270686350e-01  5.0389842430869114e-01  5.0089196450895124e-01  4.9761393554869970e-01  4.9430188902094502e-01  4.9134251751240038e-01  4.8920462768103395e-01  4.8830666229337349e-01  4.8885888200343020e-01  4.9076371785067163e-01  4.9363350291097724e-01  4.9690821894521242e-01  5.0000571981424191e-01  5.0244963089226091e-01  5.0395576327842995e-01  5.0447160739649333e-01  5.0415910107999651e-01  5.0331697727034541e-01  5.0226649024248304e-01  5.0125250067230198e-01  5.0040433883917845e-01  4.9974694960845734e-01  4.9920611457990849e-01  4.9858229279864152e-01  4.9754802027925410e-01  4.9574079665244364e-01  4.9293627780151594e-01  4.8918919475737888e-01  4.8483554580987603e-01  4.8035467073824856e-01  4.7617875970470330e-01  4.7253397636157285e-01  4.6934834503703665e-01  4.6624604545830522e-01  4.6266192896144481e-01  4.5808735432437286e-01  4.5238157224811237e-01  4.4601858389044269e-01  4.4007488910949566e-01  4.3577503737278594e-01  4.3364109694651026e-01  4.3310945056228917e-01  4.6888986339631000e-01  4.6911713814353573e-01  4.6983695711593326e-01  4.7114896463077016e-01  4.7318038186080474e-01  4.7604391461576928e-01  4.7978468789722778e-01  4.8431347892590437e-01  4.8935788368473421e-01  4.9449092304322140e-01  4.9924940007051194e-01  5.0326005331535151e-01  5.0628238936069647e-01  5.0818140587175198e-01  5.0891145843992824e-01  5.0853958171116331e-01  5.0726502840069920e-01  5.0539105809194051e-01  5.0323952715898579e-01  5.0103319442350347e-01  4.9881378949175181e-01  4.96467405893