<?xml version="1.0"?>
<VTKFile type="UnstructuredGrid"  version="0.1"  >
<UnstructuredGrid>
<Piece  NumberOfPoints="20201" NumberOfCells="40000">
<Points>
<DataArray  type="Float64"  NumberOfComponents="3"  format="ascii">0 0 0  2 0 0  4 0 0  6 0 0  8 0 0  10 0 0  12 0 0  14 0 0  16 0 0  18 0 0  20 0 0  22 0 0  24 0 0  26 0 0  28 0 0  30 0 0  32 0 0  34 0 0  36 0 0  38 0 0  40 0 0  42 0 0  44 0 0  46 0 0  48 0 0  50 0 0  52 0 0  54 0 0  56 0 0  58 0 0  60 0 0  62 0 0  64 0 0  66 0 0  68 0 0  70 0 0  72 0 0  74 0 0  76 0 0  78 0 0  80 0 0  82 0 0  84 0 0  86 0 0  88 0 0  90 0 0  92 0 0  94 0 0  96 0 0  98 0 0  100 0 0  102 0 0  104 0 0  106 0 0  108 0 0  110 0 0  112 0 0  114 0 0  116 0 0  118 0 0  120 0 0  122 0 0  124 0 0  126 0 0  128 0 0  130 0 0  132 0 0  134 0 0  136 0 0  138 0 0  140 0 0  142 0 0  144 0 0  146 0 0  148 0 0  150 0 0  152 0 0  154 0 0  156 0 0  158 0 0  160 0 0  162 0 0  164 0 0  166 0 0  168 0 0  170 0 0  172 0 0  174 0 0  176 0 0  178 0 0  180 0 0  182 0 0  184 0 0  186 0 0  188 0 0  190 0 0  192 0 0  194 0 0  196 0 0  198 0 0  200 0 0  0 2 0  2 2 0  4 2 0  6 2 0  8 2 0  10 2 0  12 2 0  14 2 0  16 2 0  18 2 0  20 2 0  22 2 0  24 2 0  26 2 0  28 2 0  30 2 0  32 2 0  34 2 0  36 2 0  38 2 0  40 2 0  42 2 0  44 2 0  46 2 0  48 2 0  50 2 0  52 2 0  54 2 0  56 2 0  58 2 0  60 2 0  62 2 0  64 2 0  66 2 0  68 2 0  70 2 0  72 2 0  74 2 0  76 2 0  78 2 0  80 2 0  82 2 0  84 2 0  86 2 0  88 2 0  90 2 0  92 2 0  94 2 0  96 2 0  98 2 0  100 2 0  102 2 0  104 2 0  106 2 0  108 2 0  110 2 0  112 2 0  114 2 0  116 2 0  118 2 0  120 2 0  122 2 0  124 2 0  126 2 0  128 2 0  130 2 0  132 2 0  134 2 0  136 2 0  138 2 0  140 2 0  142 2 0  144 2 0  146 2 0  148 2 0  150 2 0  152 2 0  154 2 0  156 2 0  158 2 0  160 2 0  162 2 0  164 2 0  166 2 0  168 2 0  170 2 0  172 2 0  174 2 0  176 2 0  178 2 0  180 2 0  182 2 0  184 2 0  186 2 0  188 2 0  190 2 0  192 2 0  194 2 0  196 2 0  198 2 0  200 2 0  0 4 0  2 4 0  4 4 0  6 4 0  8 4 0  10 4 0  12 4 0  14 4 0  16 4 0  18 4 0  20 4 0  22 4 0  24 4 0  26 4 0  28 4 0  30 4 0  32 4 0  34 4 0  36 4 0  38 4 0  40 4 0  42 4 0  44 4 0  46 4 0  48 4 0  50 4 0  52 4 0  54 4 0  56 4 0  58 4 0  60 4 0  62 4 0  64 4 0  66 4 0  68 4 0  70 4 0  72 4 0  74 4 0  76 4 0  78 4 0  80 4 0  82 4 0  84 4 0  86 4 0  88 4 0  90 4 0  92 4 0  94 4 0  96 4 0  98 4 0  100 4 0  102 4 0  104 4 0  106 4 0  108 4 0  110 4 0  112 4 0  114 4 0  116 4 0  118 4 0  120 4 0  122 4 0  124 4 0  126 4 0  128 4 0  130 4 0  132 4 0  134 4 0  136 4 0  138 4 0  140 4 0  142 4 0  144 4 0  146 4 0  148 4 0  150 4 0  152 4 0  154 4 0  156 4 0  158 4 0  160 4 0  162 4 0  164 4 0  166 4 0  168 4 0  170 4 0  172 4 0  174 4 0  176 4 0  178 4 0  180 4 0  182 4 0  184 4 0  186 4 0  188 4 0  190 4 0  192 4 0  194 4 0  196 4 0  198 4 0  200 4 0  0 6 0  2 6 0  4 6 0  6 6 0  8 6 0  10 6 0  12 6 0  14 6 0  16 6 0  18 6 0  20 6 0  22 6 0  24 6 0  26 6 0  28 6 0  30 6 0  32 6 0  34 6 0  36 6 0  38 6 0  40 6 0  42 6 0  44 6 0  46 6 0  48 6 0  50 6 0  52 6 0  54 6 0  56 6 0  58 6 0  60 6 0  62 6 0  64 6 0  66 6 0  68 6 0  70 6 0  72 6 0  74 6 0  76 6 0  78 6 0  80 6 0  82 6 0  84 6 0  86 6 0  88 6 0  90 6 0  92 6 0  94 6 0  96 6 0  98 6 0  100 6 0  102 6 0  104 6 0  106 6 0  108 6 0  110 6 0  112 6 0  114 6 0  116 6 0  118 6 0  120 6 0  122 6 0  124 6 0  126 6 0  128 6 0  130 6 0  132 6 0  134 6 0  136 6 0  138 6 0  140 6 0  142 6 0  144 6 0  146 6 0  148 6 0  150 6 0  152 6 0  154 6 0  156 6 0  158 6 0  160 6 0  162 6 0  164 6 0  166 6 0  168 6 0  170 6 0  172 6 0  174 6 0  176 6 0  178 6 0  180 6 0  182 6 0  184 6 0  186 6 0  188 6 0  190 6 0  192 6 0  194 6 0  196 6 0  198 6 0  200 6 0  0 8 0  2 8 0  4 8 0  6 8 0  8 8 0  10 8 0  12 8 0  14 8 0  16 8 0  18 8 0  20 8 0  22 8 0  24 8 0  26 8 0  28 8 0  30 8 0  32 8 0  34 8 0  36 8 0  38 8 0  40 8 0  42 8 0  44 8 0  46 8 0  48 8 0  50 8 0  52 8 0  54 8 0  56 8 0  58 8 0  60 8 0  62 8 0  64 8 0  66 8 0  68 8 0  70 8 0  72 8 0  74 8 0  76 8 0  78 8 0  80 8 0  82 8 0  84 8 0  86 8 0  88 8 0  90 8 0  92 8 0  94 8 0  96 8 0  98 8 0  100 8 0  102 8 0  104 8 0  106 8 0  108 8 0  110 8 0  112 8 0  114 8 0  116 8 0  118 8 0  120 8 0  122 8 0  124 8 0  126 8 0  128 8 0  130 8 0  132 8 0  134 8 0  136 8 0  138 8 0  140 8 0  142 8 0  144 8 0  146 8 0  148 8 0  150 8 0  152 8 0  154 8 0  156 8 0  158 8 0  160 8 0  162 8 0  164 8 0  166 8 0  168 8 0  170 8 0  172 8 0  174 8 0  176 8 0  178 8 0  180 8 0  182 8 0  184 8 0  186 8 0  188 8 0  190 8 0  192 8 0  194 8 0  196 8 0  198 8 0  200 8 0  0 10 0  2 10 0  4 10 0  6 10 0  8 10 0  10 10 0  12 10 0  14 10 0  16 10 0  18 10 0  20 10 0  22 10 0  24 10 0  26 10 0  28 10 0  30 10 0  32 10 0  34 10 0  36 10 0  38 10 0  40 10 0  42 10 0  44 10 0  46 10 0  48 10 0  50 10 0  52 10 0  54 10 0  56 10 0  58 10 0  60 10 0  62 10 0  64 10 0  66 10 0  68 10 0  70 10 0  72 10 0  74 10 0  76 10 0  78 10 0  80 10 0  82 10 0  84 10 0  86 10 0  88 10 0  90 10 0  92 10 0  94 10 0  96 10 0  98 10 0  100 10 0  102 10 0  104 10 0  106 10 0  108 10 0  110 10 0  112 10 0  114 10 0  116 10 0  118 10 0  120 10 0  122 10 0  124 10 0  126 10 0  128 10 0  130 10 0  132 10 0  134 10 0  136 10 0  138 10 0  140 10 0  142 10 0  144 10 0  146 10 0  148 10 0  150 10 0  152 10 0  154 10 0  156 10 0  158 10 0  160 10 0  162 10 0  164 10 0  166 10 0  168 10 0  170 10 0  172 10 0  174 10 0  176 10 0  178 10 0  180 10 0  182 10 0  184 10 0  186 10 0  188 10 0  190 10 0  192 10 0  194 10 0  196 10 0  198 10 0  200 10 0  0 12 0  2 12 0  4 12 0  6 12 0  8 12 0  10 12 0  12 12 0  14 12 0  16 12 0  18 12 0  20 12 0  22 12 0  24 12 0  26 12 0  28 12 0  30 12 0  32 12 0  34 12 0  36 12 0  38 12 0  40 12 0  42 12 0  44 12 0  46 12 0  48 12 0  50 12 0  52 12 0  54 12 0  56 12 0  58 12 0  60 12 0  62 12 0  64 12 0  66 12 0  68 12 0  70 12 0  72 12 0  74 12 0  76 12 0  78 12 0  80 12 0  82 12 0  84 12 0  86 12 0  88 12 0  90 12 0  92 12 0  94 12 0  96 12 0  98 12 0  100 12 0  102 12 0  104 12 0  106 12 0  108 12 0  110 12 0  112 12 0  114 12 0  116 12 0  118 12 0  120 12 0  122 12 0  124 12 0  126 12 0  128 12 0  130 12 0  132 12 0  134 12 0  136 12 0  138 12 0  140 12 0  142 12 0  144 12 0  146 12 0  148 12 0  150 12 0  152 12 0  154 12 0  156 12 0  158 12 0  160 12 0  162 12 0  164 12 0  166 12 0  168 12 0  170 12 0  172 12 0  174 12 0  176 12 0  178 12 0  180 12 0  182 12 0  184 12 0  186 12 0  188 12 0  190 12 0  192 12 0  194 12 0  196 12 0  198 12 0  200 12 0  0 14 0  2 14 0  4 14 0  6 14 0  8 14 0  10 14 0  12 14 0  14 14 0  16 14 0  18 14 0  20 14 0  22 14 0  24 14 0  26 14 0  28 14 0  30 14 0  32 14 0  34 14 0  36 14 0  38 14 0  40 14 0  42 14 0  44 14 0  46 14 0  48 14 0  50 14 0  52 14 0  54 14 0  56 14 0  58 14 0  60 14 0  62 14 0  64 14 0  66 14 0  68 14 0  70 14 0  72 14 0  74 14 0  76 14 0  78 14 0  80 14 0  82 14 0  84 14 0  86 14 0  88 14 0  90 14 0  92 14 0  94 14 0  96 14 0  98 14 0  100 14 0  102 14 0  104 14 0  106 14 0  108 14 0  110 14 0  112 14 0  114 14 0  116 14 0  118 14 0  120 14 0  122 14 0  124 14 0  126 14 0  128 14 0  130 14 0  132 14 0  134 14 0  136 14 0  138 14 0  140 14 0  142 14 0  144 14 0  146 14 0  148 14 0  150 14 0  152 14 0  154 14 0  156 14 0  158 14 0  160 14 0  162 14 0  164 14 0  166 14 0  168 14 0  170 14 0  172 14 0  174 14 0  176 14 0  178 14 0  180 14 0  182 14 0  184 14 0  186 14 0  188 14 0  190 14 0  192 14 0  194 14 0  196 14 0  198 14 0  200 14 0  0 16 0  2 16 0  4 16 0  6 16 0  8 16 0  10 16 0  12 16 0  14 16 0  16 16 0  18 16 0  20 16 0  22 16 0  24 16 0  26 16 0  28 16 0  30 16 0  32 16 0  34 16 0  36 16 0  38 16 0  40 16 0  42 16 0  44 16 0  46 16 0  48 16 0  50 16 0  52 16 0  54 16 0  56 16 0  58 16 0  60 16 0  62 16 0  64 16 0  66 16 0  68 16 0  70 16 0  72 16 0  74 16 0  76 16 0  78 16 0  80 16 0  82 16 0  84 16 0  86 16 0  88 16 0  90 16 0  92 16 0  94 16 0  96 16 0  98 16 0  100 16 0  102 16 0  104 16 0  106 16 0  108 16 0  110 16 0  112 16 0  114 16 0  116 16 0  118 16 0  120 16 0  122 16 0  124 16 0  126 16 0  128 16 0  130 16 0  132 16 0  134 16 0  136 16 0  138 16 0  140 16 0  142 16 0  144 16 0  146 16 0  148 16 0  150 16 0  152 16 0  154 16 0  156 16 0  158 16 0  160 16 0  162 16 0  164 16 0  166 16 0  168 16 0  170 16 0  172 16 0  174 16 0  176 16 0  178 16 0  180 16 0  182 16 0  184 16 0  186 16 0  188 16 0  190 16 0  192 16 0  194 16 0  196 16 0  198 16 0  200 16 0  0 18 0  2 18 0  4 18 0  6 18 0  8 18 0  10 18 0  12 18 0  14 18 0  16 18 0  18 18 0  20 18 0  22 18 0  24 18 0  26 18 0  28 18 0  30 18 0  32 18 0  34 18 0  36 18 0  38 18 0  40 18 0  42 18 0  44 18 0  46 18 0  48 18 0  50 18 0  52 18 0  54 18 0  56 18 0  58 18 0  60 18 0  62 18 0  64 18 0  66 18 0  68 18 0  70 18 0  72 18 0  74 18 0  76 18 0  78 18 0  80 18 0  82 18 0  84 18 0  86 18 0  88 18 0  90 18 0  92 18 0  94 18 0  96 18 0  98 18 0  100 18 0  102 18 0  104 18 0  106 18 0  108 18 0  110 18 0  112 18 0  114 18 0  116 18 0  118 18 0  120 18 0  122 18 0  124 18 0  126 18 0  128 18 0  130 18 0  132 18 0  134 18 0  136 18 0  138 18 0  140 18 0  142 18 0  144 18 0  146 18 0  148 18 0  150 18 0  152 18 0  154 18 0  156 18 0  158 18 0  160 18 0  162 18 0  164 18 0  166 18 0  168 18 0  170 18 0  172 18 0  174 18 0  176 18 0  178 18 0  180 18 0  182 18 0  184 18 0  186 18 0  188 18 0  190 18 0  192 18 0  194 18 0  196 18 0  198 18 0  200 18 0  0 20 0  2 20 0  4 20 0  6 20 0  8 20 0  10 20 0  12 20 0  14 20 0  16 20 0  18 20 0  20 20 0  22 20 0  24 20 0  26 20 0  28 20 0  30 20 0  32 20 0  34 20 0  36 20 0  38 20 0  40 20 0  42 20 0  44 20 0  46 20 0  48 20 0  50 20 0  52 20 0  54 20 0  56 20 0  58 20 0  60 20 0  62 20 0  64 20 0  66 20 0  68 20 0  70 20 0  72 20 0  74 20 0  76 20 0  78 20 0  80 20 0  82 20 0  84 20 0  86 20 0  88 20 0  90 20 0  92 20 0  94 20 0  96 20 0  98 20 0  100 20 0  102 20 0  104 20 0  106 20 0  108 20 0  110 20 0  112 20 0  114 20 0  116 20 0  118 20 0  120 20 0  122 20 0  124 20 0  126 20 0  128 20 0  130 20 0  132 20 0  134 20 0  136 20 0  138 20 0  140 20 0  142 20 0  144 20 0  146 20 0  148 20 0  150 20 0  152 20 0  154 20 0  156 20 0
[...]
<PointData  Scalars="f_271-0"> 
<DataArray  type="Float64"  Name="f_271-0"  format="ascii">5.1860511530703390e-01  5.1847447327471907e-01  5.1808633639980872e-01  5.1745189850256723e-01  5.1658925965881186e-01  5.1552266730008078e-01  5.1428158601217655e-01  5.1289968950740772e-01  5.1141385132321493e-01  5.0986317830732963e-01  5.0828809257176888e-01  5.0672943452426222e-01  5.0522754149901250e-01  5.0382125897055008e-01  5.0254686425983874e-01  5.0143692026617603e-01  5.0051911910527813e-01  4.9981521099681780e-01  4.9934013210693928e-01  4.9910144015425978e-01  4.9909913795369926e-01  4.9932591806391807e-01  4.9976780618762706e-01  5.0040512884225341e-01  5.0121369302075514e-01  5.0216604941075338e-01  5.0323271817341164e-01  5.0438328351022865e-01  5.0558730181858358e-01  5.0681500723721207e-01  5.0803782712111312e-01  5.0922873050540174e-01  5.1036242137771892e-01  5.1141535692000473e-01  5.1236552421931292e-01  5.1319185495379560e-01  5.1387310381211659e-01  5.1438596809819248e-01  5.1470218419043490e-01  5.1478429735243247e-01  5.1457975586056204e-01  5.1401291479894873e-01  5.1297443027326439e-01  5.1130735372278813e-01  5.0878895096839827e-01  5.0510677260589487e-01  4.9982655872978626e-01  4.9234760676081318e-01  4.8183714921169779e-01  4.6713226545625081e-01  4.4671262065775569e-01  4.2139517885431704e-01  4.3598010666403375e-01  6.2010562717075013e-01  7.2804627679302047e-01  7.4287141236900922e-01  7.4673458246966340e-01  7.4946837243068809e-01  7.5149244001115723e-01  7.5257763601534777e-01  7.4993625513574502e-01  7.0552080980775267e-01  5.8269894026847968e-01  7.0395125595724717e-01  7.4447534653976954e-01  7.4648008600751548e-01  7.4573679245448377e-01  7.4458371263910283e-01  7.4312402375796915e-01  7.4137819396375049e-01  7.3941343871224785e-01  7.3729858693461214e-01  7.3305219811690425e-01  6.9211243261268773e-01  5.0143376656726435e-01  3.9927831384032131e-01  4.1257635078502580e-01  4.3345550864942556e-01  4.4901217049974851e-01  4.5961666944829560e-01  4.6608119321522773e-01  4.6898743240020946e-01  4.6868724828959046e-01  4.6532452922638518e-01  4.5884513812052508e-01  4.4899105310018744e-01  4.3527768397730898e-01  4.1708727264513606e-01  3.9682776498962452e-01  4.2506352099570671e-01  6.2272910157890793e-01  7.2107916902569025e-01  7.3003686736684070e-01  7.2893510004557127e-01  7.2699288378062721e-01  7.2498061491136412e-01  7.2310134471892296e-01  7.2149308905004872e-01  7.2026385279224137e-01  7.1949338147058661e-01  7.1923098531428586e-01  5.1838358631925019e-01  5.1825564947546743e-01  5.1787554224375587e-01  5.1725420390822807e-01  5.1640932091126845e-01  5.1536458324904344e-01  5.1414877457234365e-01  5.1279478852143767e-01  5.1133864682219199e-01  5.0981856217985655e-01  5.0827405068040421e-01  5.0674506539974984e-01  5.0527110487937688e-01  5.0389025259641229e-01  5.0263812645336303e-01  5.0154675489361866e-01  5.0064343857125360e-01  4.9994969199981393e-01  4.9948037808997264e-01  4.9924314381736296e-01  4.9923823695580039e-01  4.9945873720242506e-01  4.9989117993195681e-01  5.0051649908780693e-01  5.0131117824869931e-01  5.0224848297671398e-01  5.0329965507846197e-01  5.0443497660865966e-01  5.0562464989053579e-01  5.0683947863848922e-01  5.0805136379826477e-01  5.0923363805526978e-01  5.1036125160054291e-01  5.1141079006348777e-01  5.1236025897352666e-01  5.1318851541254040e-01  5.1387417430639493e-01  5.1439376937129977e-01  5.1471890832531353e-01  5.1481212496365369e-01  5.1462108859586708e-01  5.1407077129875589e-01  5.1305307815990475e-01  5.1141329080249853e-01  5.0893241891469043e-01  5.0530411343126991e-01  5.0010396983340288e-01  4.9274736345464737e-01  4.8242851476484871e-01  4.6803149671957900e-01  4.4810678478048144e-01  4.2308503360996080e-01  4.2962367103047011e-01  5.9985647364455119e-01  7.2394204582864841e-01  7.4254216851906973e-01  7.4668405188415488e-01  7.4942067874124940e-01  7.5142835756085091e-01  7.5243006128928847e-01  7.4921453367902124e-01  7.0089891083639433e-01  5.7588838041317125e-01  7.0231543245739414e-01  7.4403497837742638e-01  7.4626980327253267e-01  7.4558657438237286e-01  7.4445238533554547e-01  7.4299489165929289e-01  7.4124397625716976e-01  7.3926674111100088e-01  7.3707783318566411e-01  7.3208026365930989e-01  6.8459626026619991e-01  4.8798999359080741e-01  3.9877318875169926e-01  4.1391582009645023e-01  4.3447816572077408e-01  4.4975494877413524e-01  4.6017439353514161e-01  4.6652515419144397e-01  4.6937213875586520e-01  4.6905809800149023e-01  4.6572416792625487e-01  4.5931967528553691e-01  4.4959783693895483e-01  4.3609702118153437e-01  4.1822602592255537e-01  3.9785360709143347e-01  4.1675711359973266e-01  6.0222488569869670e-01  7.1709153113369972e-01  7.2960145098113272e-01  7.2879891758900595e-01  7.2688361708414650e-01  7.2488674304956102e-01  7.2302530885709015e-01  7.2143375568134294e-01  7.2021763155000984e-01  7.1945543087155894e-01  7.1919585655420359e-01  5.1773551837446641e-01  5.1761554924650044e-01  5.1725909216628507e-01  5.1667633692406312e-01  5.1588375193755875e-01  5.1490338561057936e-01  5.1376201613985784e-01  5.1249023953152117e-01  5.1112156835020062e-01  5.0969158122909464e-01  5.0823712498354046e-01  5.0679553834070556e-01  5.0540384838267893e-01  5.0409789329152921e-01  5.0291134780331570e-01  5.0187466523915758e-01  5.0101399224203957e-01  5.0035014795135091e-01  4.9989777820032766e-01  4.9966479132689356e-01  4.9965215484455971e-01  4.9985408678115278e-01  5.0025862165200352e-01  5.0084848048042463e-01  5.0160213777061924e-01  5.0249496304815189e-01  5.0350032238435882e-01  5.0459055243947726e-01  5.0573775763761131e-01  5.0691441934805681e-01  5.0809383386831775e-01  5.0925040579550640e-01  5.1035981164819222e-01  5.1139901684314626e-01  5.1234608289914019e-01  5.1317964887139278e-01  5.1387791933170890e-01  5.1441694627127610e-01  5.1476795581674972e-01  5.1489343975185120e-01  5.1474169937151593e-01  5.1423948465775438e-01  5.1328230215924064e-01  5.1172185412171178e-01  5.0934989489800075e-01  5.0587749967810491e-01  5.0090822080644637e-01  4.9390259159701144e-01  4.8412953140298431e-01  4.7060054766736958e-01  4.5205528153222968e-01  4.2826216351161833e-01  4.1852059973608424e-01  5.3777274315644774e-01  7.0453051168650471e-01  7.4048462933997794e-01  7.4639325669235190e-01  7.4926848288566184e-01  7.5123733175282259e-01  7.5188927028105068e-01  7.4603907193094920e-01  6.8118925126316909e-01  5.4992576828633088e-01  6.9506932491233753e-01  7.4252684325963492e-01  7.4567650717791956e-01  7.4517536685188823e-01  7.4408693437502527e-01  7.4262978922341094e-01  7.4086132782887171e-01  7.3883698098427797e-01  7.3629707272691691e-01  7.2776503276228188e-01  6.5505284742429826e-01  4.5357562067081930e-01  3.9919437907627375e-01  4.1785537815528151e-01  4.3744842452820598e-01  4.5191912803493961e-01  4.6180502943939811e-01  4.6782704682518977e-01  4.7050257207988583e-01  4.7014847113110353e-01  4.6689789479185012e-01  4.6070952987294927e-01  4.5136711685283287e-01  4.3847038889815299e-01  4.2149963913442351e-01  4.0132907097996245e-01  4.0066704849514811e-01  5.3748777700627148e-01  6.9886596109789900e-01  7.2740627147704628e-01  7.2827457895764802e-01  7.2653703808240000e-01  7.2459823106260868e-01  7.2278787455741633e-01  7.2124350141656868e-01  7.2006488669542768e-01  7.1932676097373704e-01  7.1907549582815233e-01  5.1670915884012003e-01  5.1660198571442861e-01  5.1628351055658650e-01  5.1576272007997404e-01  5.1505412735284894e-01  5.1417714509494383e-01  5.1315533108708777e-01  5.1201559107713202e-01  5.1078740693090907e-01  5.0950212524783189e-01  5.0819230366774293e-01  5.0689107952449752e-01  5.0563150777127164e-01  5.0444581762661433e-01  5.0336456009647357e-01  5.0241565582306413e-01  5.0162339490508479e-01  5.0100747613862495e-01  5.0058219259102432e-01  5.0035586751086769e-01  5.0033061876588214e-01  5.0050248641445072e-01  5.0086190614784110e-01  5.0139446264439846e-01  5.0208182189260830e-01  5.0290272727593077e-01  5.0383395246523310e-01  5.0485113117779667e-01  5.0592942137913610e-01  5.0704399890873098e-01  5.0817040246953904e-01  5.0928476083849894e-01  5.1036392082612214e-01  5.1138546258852302e-01  5.1232754310031237e-01  5.1316845696396318e-01  5.1388575434111883e-01  5.1445471461619541e-01  5.1484594379070936e-01  5.1502184176726717e-01  5.1493166727817208e-01  5.1450490588917430e-01  5.1364261288868163e-01  5.1220635223733724e-01  5.1000428105661744e-01  5.0677383003606302e-01  5.0216028360716802e-01  4.9569032261244872e-01  4.8673932151567351e-01  4.7449349613563219e-01  4.5794945936944254e-01  4.3650810755841096e-01  4.1655704277726563e-01  4.5906335625513373e-01  6.3869712530976352e-01  7.2874151047034197e-01  7.4431893439664210e-01  7.4862228689580201e-01  7.5059235151488979e-01  7.4968585068722249e-01  7.3348026428625879e-01  6.2032703365591813e-01  4.9438187789197724e-01  6.7272419270344874e-01  7.3868395777313611e-01  7.4469633043685002e-01  7.4459551380381905e-01  7.4356699353562317e-01  7.4209333592514448e-01  7.4027408167301245e-01  7.3806331963749627e-01  7.3397773858899784e-01  7.1207828160919939e-01  5.8212029956014755e-01  4.1699585571466607e-01  4.0366599056263536e-01  4.2410124849831154e-01  4.4209135448512182e-01  4.5532384367109430e-01  4.6438792822336039e-01  4.6990125780833519e-01  4.7231077954724499e-01  4.7189468334018020e-01  4.6877373202790135e-01  4.6291931937246611e-01  4.5415716278314949e-01  4.4216880453917795e-01  4.2653642321511515e-01  4.0742763620387001e-01  3.9289468852226844e-01  4.5042442120425646e-01  6.3900860384712288e-01  7.1772830359555440e-01  7.2641080578933115e-01  7.2581266413343304e-01  7.2407663718457371e-01  7.2236134965574650e-01  7.2089041285649713e-01  7.1977116873208624e-01  7.1907299625156895e-01  7.1883595000822131e-01  5.1538066301899965e-01  5.1529042079837462e-01  5.1502220142623978e-01  5.1458340077335274e-01  5.1398594595198854e-01  5.1324576328154248e-01  5.1238214966097784e-01  5.1141712706656750e-01  5.1037484170347092e-01  5.0928103670936109e-01  5.0816258950491988e-01  5.0704707259937776e-01  5.0596227913799219e-01  5.0493565704212873e-01  5.0399361817930288e-01  5.0316072613103413e-01  5.0245880829592271e-01  5.0190607419520883e-01  5.0151634215486773e-01  5.0129847507191383e-01  5.0125610216275196e-01  5.0138766240535404e-01  5.0168675606453250e-01  5.0214274439221374e-01  5.0274150458494538e-01  5.0346623416224168e-01  5.0429820779863288e-01  5.0521741655973817e-01  5.0620305632330476e-01  5.0723386848944063e-01  5.0828836180192505e-01  5.0934495186278506e-01  5.1038204175299673e-01  5.1137803494266554e-01  5.1231122632729287e-01  5.1315946703960258e-01  5.1389945205603205e-01  5.1450544297291989e-01  5.1494721472390093e-01  5.1518700378884763e-01  5.1517523312894664e-01  5.1484479143065276e-01  5.1410364921313711e-01  5.1282560565723634e-01  5.1083899096560392e-01  5.0791322692447560e-01  5.0374332130393029e-01  4.9793273260473780e-01  4.8997587416438193e-01  4.7924455295687063e-01  4.6500294196241260e-01  4.4663841158848772e-01  4.2563155859399898e-01  4.1877888846103817e-01  5.0281754290728953e-01  6.5909601767623072e-01  7.2539230966381074e-01  7.4116492588735972e-01  7.4371718854975410e-01  7.3350390001953913e-01  6.6997278654188064e-01  4.9211850109127053e-01  4.2484612928063364e-01  6.0848410134537367e-01  7.2547516229769338e-01  7.4231817850022885e-01  7.4376590097721584e-01  7.4292600429748112e-01  7.4140118105630681e-01  7.3932830724735776e-01  7.3578839227667026e-01  7.2374102374668126e-01  6.5194794281717872e-01  4.7182400072037534e-01  4.0051702757396690e-01  4.1252480393559166e-01  4.3211176737510371e-01  4.4800404963715496e-01  4.5970311850706053e-01  4.6774330684357585e-01  4.7261850008571066e-01  4.7469308546088113e-01  4.7419933178619483e-01  4.7124257560006022e-01  4.6580742175285439e-01  4.5776433196074084e-01  4.4687873711110737e-01  4.3284398370658317e-01  4.1553011861912004e-01  3.9714798890350672e-01  3.9839639760850037e-01  5.0765585162071081e-01  6.6772772291123517e-01  7.1711391018621506e-01  7.2335394332378355e-01  7.2301388371568243e-01  7.2164070114175027e-01  7.2031773290280343e-01  7.1930078433315991e-01  7.1867218068054084e-01  7.1846038775139009e-01  5.1384807983761538e-01  5.1377799410974812e-01  5.1356960544877883e-01  5.1322841696816379e-01  5.1276327848106051e-01  5.1218596640715996e-01  5.1151070432666212e-01  5.1075369735198017e-01  5.0993273458706401e-01  5.0906688110571985e-01  5.0817624320014076e-01  5.0728175861270686e-01  5.0640494613776832e-01  5.0556755158739441e-01  5.0479104960700083e-01  5.0409599784714587e-01  5.0350128224161894e-01  5.0302332875142208e-01  5.0267537830419284e-01  5.0246692191909015e-01  5.0240337153808368e-01  5.0248600367311824e-01  5.0271216658538587e-01  5.0307569817570341e-01  5.0356747104131483e-01  5.0417596981850576e-01  5.0488781556365403e-01  5.0568817879851935e-01  5.0656105894756154e-01  5.0748944301293697e-01  5.0845538062333318e-01  5.0944001897490387e-01  5.1042362695013155e-01  5.1138560497931596e-01  5.1230443219811084e-01  5.1315745370657317e-01  5.1392036698023014e-01  5.1456623459327744e-01  5.1506383407783141e-01  5.1537515526459976e-01  5.1545186885079330e-01  5.1523061534829362e-01  5.1462700272132655e-01  5.1352826374771265e-01  5.1178463380138828e-01  5.0919971047726797e-01  5.0552042465771974e-01  5.0042792223374677e-01  4.9353190386493007e-01  4.8437368385807816e-01  4.7245196293094199e-01  4.5733110021319373e-01  4.3915592397502340e-01  4.2131632854602730e-01  4.2145771593509535e-01  4.8845256295294265e-01  6.0176912009272931e-01  6.6371006169669655e-01  6.7033563274925689e-01  6.2014933265671213e-01  4.9650626968637718e-01  3.9769960427846945e-01  3.8447352912140292e-01  4.8458237316371228e-01  6.6449724015022271e-01  7.2933605926681389e-01  7.3985326960692011e-01  7.4070956484970285e-01  7.3898942349555719e-01  7.3470091348035327e-01  7.2117948516275920e-01  6.6268485592772186e-01  5.0975707877912579e-01  4.0790567431324976e-01  4.0583216871389483e-01  4.2399465118903401e-01  4.4118104090761318e-01  4.5472580125754763e-01  4.6474870171293775e-01  4.7165821425925342e-01  4.7582238084009465e-01  4.7752204061541970e-01  4.7694210194839537e-01  4.7417116229147510e-01  4.6920547624369263e-01  4.6195658493774738e-01  4.5226399707370313e-01  4.3992122616228269e-01  4.2476917790870700e-01  4.0724049806066193e-01  3.9173202621918662e-01  4.0515194030580992e-01  5.1729987322820381e-01  6.5509912090434474e-01  7.0699977617801157e-01  7.1787074990717825e-01  7.1940855665853443e-01  7.1904684396013629e-01  7.1845707307973605e-01  7.1804268260674542e-01  7.1789871228909730e-01  5.1222364198806936e-01  5.1217586915466129e-01  5.1203371244479279e-01  5.1180058057981570e-01  5.1148191749418570e-01  5.1108490519715255e-01  5.1061814850788290e-01  5.1009140784566509e-01  5.0951542650012160e-01  5.0890186561703288e-01  5.0826332245206784e-01  5.0761337555991282e-01  5.0696658340434053e-01  5.0633836552834344e-01  5.0574471787925857e-01  5.0520175090419539e-01  5.0472508150088491e-01  5.0432914717803456e-01  5.0402653340642223e-01  5.0382740732551901e-01  5.0373913203241449e-01  5.0376610022358448e-01  5.0390978266696795e-01  5.0416894636730003e-01  5.0453996900464937e-01  5.0501716661657725e-01  5.0559306201620513e-01  5.0625854836024087e-01  5.0700293770024074e-01  5.0781391824802580e-01  5.0867746686659432e-01  5.0957776815353384e-01  5.1049717598965039e-01  5.1141621998804643e-01  5.1231361437939982e-01  5.1316617935435149e-01  5.1394854380287014e-01  5.1463247098697640e-01  5.1518563911497639e-01  5.1556971798574225e-01  5.1573760974261862e-01  5.1562976567701813e-01  5.1516955535090148e-01  5.1425776093351316e-01  5.1276642402371753e-01  5.1053252929737647e-01  5.0735244082423425e-01  5.0297872200586846e-01  4.9712213772865954e-01  4.8946357260496975e-01  4.7968433708154279e-01  4.6753391682704626e-01  4.5299807204204190e-01  4.3679467669276012e-01  4.2188624048587631e-01  4.1650516707015239e-01  4.3352943580629882e-01  4.5996819648051634e-01  4.6242232900261487e-01  4.3270323967298419e-01  3.9959496950287393e-01  3.8500324155966159e-01  3.8127118697549733e-01  4.0026859192493158e-01  5.0179162949009914e-01  6.3844948934360912e-01  6.9858808062966682e-01  7.1378389723394409e-01  7.1029288327962614e-01  6.8709427732997808e-01  6.1985379371970184e-01  4.9402269410000549e-01  4.1137650908506534e-01  4.0433925459049369e-01  4.1959901265648353e-01  4.3638064848489694e-01  4.5061190691598224e-01  4.6181028753311598e-01  4.7015289032793983e-01  4.7591309534136295e-01  4.7934679091011223e-01  4.8065916610030057e-01  4.7999118905126115e-01  4.7741516634923803e-01  4.7293654762905729e-01  4.6650108618333536e-01  4.5800787768037893e-01  4.4733120616525462e-01  4.3436402534735730e-01  4.1915296221943216e-01  4.0254424439809905e-01  3.8900953561592017e-01  3.9862775894795310e-01  4.7632138926307976e-01  5.9768190631904738e-01  6.7052741034989660e-01  6.9925700679819613e-01  7.0936627997540158e-01  7.1284701744790324e-01  7.1402188169676239e-01  7.1430509398905828e-01  5.1062499836276143e-01  5.1060053068076361e-01  5.1052755132683247e-01  5.1040728138781366e-01  5.1024160639605765e-01  5.1003290654966560e-01  5.0978391190399130e-01  5.0949764172371936e-01  5.0917746644621087e-01  5.0882729700131435e-01  5.0845186837425915e-01  5.0805705242551280e-01  5.0765011786615832e-01  5.0723985799256710e-01  5.0683652929353129e-01  5.0645158122036937e-01  5.0609720029916505e-01  5.0578572988410819e-01  5.0552905089090505e-01  5.0533801305336212e-01  5.0522198987304245e-01  5.0518859791298476e-01  5.0524358084959675e-01  5.0539082096661803e-01  5.0563241492810351e-01  5.0596874282994608e-01  5.0639847103545099e-01  5.0691845639793587e-01  5.0752355433688101e-01  5.0820636600167657e-01  5.0895698104788556e-01  5.0976277581139740e-01  5.1060830974907923e-01  5.1147532862082534e-01  5.1234283779925582e-01  5.1318716245597429e-01  5.1398187252583805e-01  5.1469742680926411e-01  5.1530038674835588e-01  5.1575206747186086e-01  5.1600653073964720e-01  5.1600788084470961e-01  5.1568690340374701e-01  5.1495719876456880e-01  5.1371112808091079e-01  5.1181614656360785e-01  5.0911249549856097e-01  5.0541382398617474e-01  5.0051317220277169e-01  4.9419789903225420e-01  4.8627856897205574e-01  4.7663879788396485e-01  4.6531725022349174e-01  4.5264419152144680e-01  4.3945739814555657e-01  4.2732919983058165e-01  4.1807994766781731e-01  4.1249916140244858e-01  4.0855881291248147e-01  4.0476335915653106e-01  4.0169981651500686e-01  3.9859532552378429e-01  3.9461400722411971e-01  3.9185726280553485e-01  4.0192663209410745e-01  4.4736790461156645e-01  5.1236750287485378e-01  5.5061914130735889e-01  5.4351271052961880e-01  4.9663352687298956e-01  4.3779751853391369e-01  4.0571749742439772e-01  4.0652931177771801e-01  4.1975672711161016e-01  4.3482957047693582e-01  4.4846941617302460e-01  4.5985464815455179e-01  4.6887888179456755e-01  4.7564150738776573e-01  4.8030339740287642e-01  4.8303070854669788e-01  4.8396610301838977e-01  4.8321321886661894e-01  4.8082996959172442e-01  4.7682860991553039e-01  4.7118159987131059e-01  4.6383318424124986e-01  4.5471748055530936e-01  4.4378559545023888e-01  4.3105344001128948e-01  4.1671949248028844e-01  4.0159722437135303e-01  3.8847235078769804e-01  3.8625536606254862e-01  4.1511855436082296e-01  4.8259603486488001e-01  5.6221770095098422e-01  6.1786274756145954e-01  6.4645294894398020e-01  6.5920593590888765e-01  6.6285373437464035e-01  5.0916611209817131e-01  5.0916475192826816e-01  5.0916036277145249e-01  5.0915199483556017e-01  5.0913800153998467e-01  5.0911599497271087e-01  5.0908286914447898e-01  5.0903494362901869e-01  5.0896825836240500e-01  5.0887901598453700e-01  5.0876412987758568e-01  5.0862180402957469e-01  5.0845205371183877e-01  5.0825707872748171e-01  5.0804142366435590e-01  5.0781189710776331e-01  5.0757726528855240e-01  5.0734777479531534e-01  5.0713458453459803e-01  5.0694919334041055e-01  5.0680293570683388e-01  5.06706588331