<?xml version="1.0"?>
<VTKFile type="UnstructuredGrid"  version="0.1"  >
<UnstructuredGrid>
<Piece  NumberOfPoints="20201" NumberOfCells="40000">
<Points>
<DataArray  type="Float64"  NumberOfComponents="3"  format="ascii">0 0 0  2 0 0  4 0 0  6 0 0  8 0 0  10 0 0  12 0 0  14 0 0  16 0 0  18 0 0  20 0 0  22 0 0  24 0 0  26 0 0  28 0 0  30 0 0  32 0 0  34 0 0  36 0 0  38 0 0  40 0 0  42 0 0  44 0 0  46 0 0  48 0 0  50 0 0  52 0 0  54 0 0  56 0 0  58 0 0  60 0 0  62 0 0  64 0 0  66 0 0  68 0 0  70 0 0  72 0 0  74 0 0  76 0 0  78 0 0  80 0 0  82 0 0  84 0 0  86 0 0  88 0 0  90 0 0  92 0 0  94 0 0  96 0 0  98 0 0  100 0 0  102 0 0  104 0 0  106 0 0  108 0 0  110 0 0  112 0 0  114 0 0  116 0 0  118 0 0  120 0 0  122 0 0  124 0 0  126 0 0  128 0 0  130 0 0  132 0 0  134 0 0  136 0 0  138 0 0  140 0 0  142 0 0  144 0 0  146 0 0  148 0 0  150 0 0  152 0 0  154 0 0  156 0 0  158 0 0  160 0 0  162 0 0  164 0 0  166 0 0  168 0 0  170 0 0  172 0 0  174 0 0  176 0 0  178 0 0  180 0 0  182 0 0  184 0 0  186 0 0  188 0 0  190 0 0  192 0 0  194 0 0  196 0 0  198 0 0  200 0 0  0 2 0  2 2 0  4 2 0  6 2 0  8 2 0  10 2 0  12 2 0  14 2 0  16 2 0  18 2 0  20 2 0  22 2 0  24 2 0  26 2 0  28 2 0  30 2 0  32 2 0  34 2 0  36 2 0  38 2 0  40 2 0  42 2 0  44 2 0  46 2 0  48 2 0  50 2 0  52 2 0  54 2 0  56 2 0  58 2 0  60 2 0  62 2 0  64 2 0  66 2 0  68 2 0  70 2 0  72 2 0  74 2 0  76 2 0  78 2 0  80 2 0  82 2 0  84 2 0  86 2 0  88 2 0  90 2 0  92 2 0  94 2 0  96 2 0  98 2 0  100 2 0  102 2 0  104 2 0  106 2 0  108 2 0  110 2 0  112 2 0  114 2 0  116 2 0  118 2 0  120 2 0  122 2 0  124 2 0  126 2 0  128 2 0  130 2 0  132 2 0  134 2 0  136 2 0  138 2 0  140 2 0  142 2 0  144 2 0  146 2 0  148 2 0  150 2 0  152 2 0  154 2 0  156 2 0  158 2 0  160 2 0  162 2 0  164 2 0  166 2 0  168 2 0  170 2 0  172 2 0  174 2 0  176 2 0  178 2 0  180 2 0  182 2 0  184 2 0  186 2 0  188 2 0  190 2 0  192 2 0  194 2 0  196 2 0  198 2 0  200 2 0  0 4 0  2 4 0  4 4 0  6 4 0  8 4 0  10 4 0  12 4 0  14 4 0  16 4 0  18 4 0  20 4 0  22 4 0  24 4 0  26 4 0  28 4 0  30 4 0  32 4 0  34 4 0  36 4 0  38 4 0  40 4 0  42 4 0  44 4 0  46 4 0  48 4 0  50 4 0  52 4 0  54 4 0  56 4 0  58 4 0  60 4 0  62 4 0  64 4 0  66 4 0  68 4 0  70 4 0  72 4 0  74 4 0  76 4 0  78 4 0  80 4 0  82 4 0  84 4 0  86 4 0  88 4 0  90 4 0  92 4 0  94 4 0  96 4 0  98 4 0  100 4 0  102 4 0  104 4 0  106 4 0  108 4 0  110 4 0  112 4 0  114 4 0  116 4 0  118 4 0  120 4 0  122 4 0  124 4 0  126 4 0  128 4 0  130 4 0  132 4 0  134 4 0  136 4 0  138 4 0  140 4 0  142 4 0  144 4 0  146 4 0  148 4 0  150 4 0  152 4 0  154 4 0  156 4 0  158 4 0  160 4 0  162 4 0  164 4 0  166 4 0  168 4 0  170 4 0  172 4 0  174 4 0  176 4 0  178 4 0  180 4 0  182 4 0  184 4 0  186 4 0  188 4 0  190 4 0  192 4 0  194 4 0  196 4 0  198 4 0  200 4 0  0 6 0  2 6 0  4 6 0  6 6 0  8 6 0  10 6 0  12 6 0  14 6 0  16 6 0  18 6 0  20 6 0  22 6 0  24 6 0  26 6 0  28 6 0  30 6 0  32 6 0  34 6 0  36 6 0  38 6 0  40 6 0  42 6 0  44 6 0  46 6 0  48 6 0  50 6 0  52 6 0  54 6 0  56 6 0  58 6 0  60 6 0  62 6 0  64 6 0  66 6 0  68 6 0  70 6 0  72 6 0  74 6 0  76 6 0  78 6 0  80 6 0  82 6 0  84 6 0  86 6 0  88 6 0  90 6 0  92 6 0  94 6 0  96 6 0  98 6 0  100 6 0  102 6 0  104 6 0  106 6 0  108 6 0  110 6 0  112 6 0  114 6 0  116 6 0  118 6 0  120 6 0  122 6 0  124 6 0  126 6 0  128 6 0  130 6 0  132 6 0  134 6 0  136 6 0  138 6 0  140 6 0  142 6 0  144 6 0  146 6 0  148 6 0  150 6 0  152 6 0  154 6 0  156 6 0  158 6 0  160 6 0  162 6 0  164 6 0  166 6 0  168 6 0  170 6 0  172 6 0  174 6 0  176 6 0  178 6 0  180 6 0  182 6 0  184 6 0  186 6 0  188 6 0  190 6 0  192 6 0  194 6 0  196 6 0  198 6 0  200 6 0  0 8 0  2 8 0  4 8 0  6 8 0  8 8 0  10 8 0  12 8 0  14 8 0  16 8 0  18 8 0  20 8 0  22 8 0  24 8 0  26 8 0  28 8 0  30 8 0  32 8 0  34 8 0  36 8 0  38 8 0  40 8 0  42 8 0  44 8 0  46 8 0  48 8 0  50 8 0  52 8 0  54 8 0  56 8 0  58 8 0  60 8 0  62 8 0  64 8 0  66 8 0  68 8 0  70 8 0  72 8 0  74 8 0  76 8 0  78 8 0  80 8 0  82 8 0  84 8 0  86 8 0  88 8 0  90 8 0  92 8 0  94 8 0  96 8 0  98 8 0  100 8 0  102 8 0  104 8 0  106 8 0  108 8 0  110 8 0  112 8 0  114 8 0  116 8 0  118 8 0  120 8 0  122 8 0  124 8 0  126 8 0  128 8 0  130 8 0  132 8 0  134 8 0  136 8 0  138 8 0  140 8 0  142 8 0  144 8 0  146 8 0  148 8 0  150 8 0  152 8 0  154 8 0  156 8 0  158 8 0  160 8 0  162 8 0  164 8 0  166 8 0  168 8 0  170 8 0  172 8 0  174 8 0  176 8 0  178 8 0  180 8 0  182 8 0  184 8 0  186 8 0  188 8 0  190 8 0  192 8 0  194 8 0  196 8 0  198 8 0  200 8 0  0 10 0  2 10 0  4 10 0  6 10 0  8 10 0  10 10 0  12 10 0  14 10 0  16 10 0  18 10 0  20 10 0  22 10 0  24 10 0  26 10 0  28 10 0  30 10 0  32 10 0  34 10 0  36 10 0  38 10 0  40 10 0  42 10 0  44 10 0  46 10 0  48 10 0  50 10 0  52 10 0  54 10 0  56 10 0  58 10 0  60 10 0  62 10 0  64 10 0  66 10 0  68 10 0  70 10 0  72 10 0  74 10 0  76 10 0  78 10 0  80 10 0  82 10 0  84 10 0  86 10 0  88 10 0  90 10 0  92 10 0  94 10 0  96 10 0  98 10 0  100 10 0  102 10 0  104 10 0  106 10 0  108 10 0  110 10 0  112 10 0  114 10 0  116 10 0  118 10 0  120 10 0  122 10 0  124 10 0  126 10 0  128 10 0  130 10 0  132 10 0  134 10 0  136 10 0  138 10 0  140 10 0  142 10 0  144 10 0  146 10 0  148 10 0  150 10 0  152 10 0  154 10 0  156 10 0  158 10 0  160 10 0  162 10 0  164 10 0  166 10 0  168 10 0  170 10 0  172 10 0  174 10 0  176 10 0  178 10 0  180 10 0  182 10 0  184 10 0  186 10 0  188 10 0  190 10 0  192 10 0  194 10 0  196 10 0  198 10 0  200 10 0  0 12 0  2 12 0  4 12 0  6 12 0  8 12 0  10 12 0  12 12 0  14 12 0  16 12 0  18 12 0  20 12 0  22 12 0  24 12 0  26 12 0  28 12 0  30 12 0  32 12 0  34 12 0  36 12 0  38 12 0  40 12 0  42 12 0  44 12 0  46 12 0  48 12 0  50 12 0  52 12 0  54 12 0  56 12 0  58 12 0  60 12 0  62 12 0  64 12 0  66 12 0  68 12 0  70 12 0  72 12 0  74 12 0  76 12 0  78 12 0  80 12 0  82 12 0  84 12 0  86 12 0  88 12 0  90 12 0  92 12 0  94 12 0  96 12 0  98 12 0  100 12 0  102 12 0  104 12 0  106 12 0  108 12 0  110 12 0  112 12 0  114 12 0  116 12 0  118 12 0  120 12 0  122 12 0  124 12 0  126 12 0  128 12 0  130 12 0  132 12 0  134 12 0  136 12 0  138 12 0  140 12 0  142 12 0  144 12 0  146 12 0  148 12 0  150 12 0  152 12 0  154 12 0  156 12 0  158 12 0  160 12 0  162 12 0  164 12 0  166 12 0  168 12 0  170 12 0  172 12 0  174 12 0  176 12 0  178 12 0  180 12 0  182 12 0  184 12 0  186 12 0  188 12 0  190 12 0  192 12 0  194 12 0  196 12 0  198 12 0  200 12 0  0 14 0  2 14 0  4 14 0  6 14 0  8 14 0  10 14 0  12 14 0  14 14 0  16 14 0  18 14 0  20 14 0  22 14 0  24 14 0  26 14 0  28 14 0  30 14 0  32 14 0  34 14 0  36 14 0  38 14 0  40 14 0  42 14 0  44 14 0  46 14 0  48 14 0  50 14 0  52 14 0  54 14 0  56 14 0  58 14 0  60 14 0  62 14 0  64 14 0  66 14 0  68 14 0  70 14 0  72 14 0  74 14 0  76 14 0  78 14 0  80 14 0  82 14 0  84 14 0  86 14 0  88 14 0  90 14 0  92 14 0  94 14 0  96 14 0  98 14 0  100 14 0  102 14 0  104 14 0  106 14 0  108 14 0  110 14 0  112 14 0  114 14 0  116 14 0  118 14 0  120 14 0  122 14 0  124 14 0  126 14 0  128 14 0  130 14 0  132 14 0  134 14 0  136 14 0  138 14 0  140 14 0  142 14 0  144 14 0  146 14 0  148 14 0  150 14 0  152 14 0  154 14 0  156 14 0  158 14 0  160 14 0  162 14 0  164 14 0  166 14 0  168 14 0  170 14 0  172 14 0  174 14 0  176 14 0  178 14 0  180 14 0  182 14 0  184 14 0  186 14 0  188 14 0  190 14 0  192 14 0  194 14 0  196 14 0  198 14 0  200 14 0  0 16 0  2 16 0  4 16 0  6 16 0  8 16 0  10 16 0  12 16 0  14 16 0  16 16 0  18 16 0  20 16 0  22 16 0  24 16 0  26 16 0  28 16 0  30 16 0  32 16 0  34 16 0  36 16 0  38 16 0  40 16 0  42 16 0  44 16 0  46 16 0  48 16 0  50 16 0  52 16 0  54 16 0  56 16 0  58 16 0  60 16 0  62 16 0  64 16 0  66 16 0  68 16 0  70 16 0  72 16 0  74 16 0  76 16 0  78 16 0  80 16 0  82 16 0  84 16 0  86 16 0  88 16 0  90 16 0  92 16 0  94 16 0  96 16 0  98 16 0  100 16 0  102 16 0  104 16 0  106 16 0  108 16 0  110 16 0  112 16 0  114 16 0  116 16 0  118 16 0  120 16 0  122 16 0  124 16 0  126 16 0  128 16 0  130 16 0  132 16 0  134 16 0  136 16 0  138 16 0  140 16 0  142 16 0  144 16 0  146 16 0  148 16 0  150 16 0  152 16 0  154 16 0  156 16 0  158 16 0  160 16 0  162 16 0  164 16 0  166 16 0  168 16 0  170 16 0  172 16 0  174 16 0  176 16 0  178 16 0  180 16 0  182 16 0  184 16 0  186 16 0  188 16 0  190 16 0  192 16 0  194 16 0  196 16 0  198 16 0  200 16 0  0 18 0  2 18 0  4 18 0  6 18 0  8 18 0  10 18 0  12 18 0  14 18 0  16 18 0  18 18 0  20 18 0  22 18 0  24 18 0  26 18 0  28 18 0  30 18 0  32 18 0  34 18 0  36 18 0  38 18 0  40 18 0  42 18 0  44 18 0  46 18 0  48 18 0  50 18 0  52 18 0  54 18 0  56 18 0  58 18 0  60 18 0  62 18 0  64 18 0  66 18 0  68 18 0  70 18 0  72 18 0  74 18 0  76 18 0  78 18 0  80 18 0  82 18 0  84 18 0  86 18 0  88 18 0  90 18 0  92 18 0  94 18 0  96 18 0  98 18 0  100 18 0  102 18 0  104 18 0  106 18 0  108 18 0  110 18 0  112 18 0  114 18 0  116 18 0  118 18 0  120 18 0  122 18 0  124 18 0  126 18 0  128 18 0  130 18 0  132 18 0  134 18 0  136 18 0  138 18 0  140 18 0  142 18 0  144 18 0  146 18 0  148 18 0  150 18 0  152 18 0  154 18 0  156 18 0  158 18 0  160 18 0  162 18 0  164 18 0  166 18 0  168 18 0  170 18 0  172 18 0  174 18 0  176 18 0  178 18 0  180 18 0  182 18 0  184 18 0  186 18 0  188 18 0  190 18 0  192 18 0  194 18 0  196 18 0  198 18 0  200 18 0  0 20 0  2 20 0  4 20 0  6 20 0  8 20 0  10 20 0  12 20 0  14 20 0  16 20 0  18 20 0  20 20 0  22 20 0  24 20 0  26 20 0  28 20 0  30 20 0  32 20 0  34 20 0  36 20 0  38 20 0  40 20 0  42 20 0  44 20 0  46 20 0  48 20 0  50 20 0  52 20 0  54 20 0  56 20 0  58 20 0  60 20 0  62 20 0  64 20 0  66 20 0  68 20 0  70 20 0  72 20 0  74 20 0  76 20 0  78 20 0  80 20 0  82 20 0  84 20 0  86 20 0  88 20 0  90 20 0  92 20 0  94 20 0  96 20 0  98 20 0  100 20 0  102 20 0  104 20 0  106 20 0  108 20 0  110 20 0  112 20 0  114 20 0  116 20 0  118 20 0  120 20 0  122 20 0  124 20 0  126 20 0  128 20 0  130 20 0  132 20 0  134 20 0  136 20 0  138 20 0  140 20 0  142 20 0  144 20 0  146 20 0  148 20 0  150 20 0  152 20 0  154 20 0  156 20 0
[...]
<PointData  Scalars="f_271-0"> 
<DataArray  type="Float64"  Name="f_271-0"  format="ascii">5.4839181812498028e-01  5.4780923545716143e-01  5.4610210473418053e-01  5.4338479587015509e-01  5.3982497245227901e-01  5.3561551355697723e-01  5.3094595788474064e-01  5.2598037613110349e-01  5.2084652256183750e-01  5.1563791479192289e-01  5.1042702055756306e-01  5.0528484115240979e-01  5.0030053918251516e-01  4.9559474809662879e-01  4.9132184944220236e-01  4.8765943751991736e-01  4.8478667920304092e-01  4.8285639428245203e-01  4.8196756653265388e-01  4.8214511129058230e-01  4.8333203004423614e-01  4.8539604177107631e-01  4.8814922369225161e-01  4.9137607059325716e-01  4.9486350041526167e-01  4.9842615378738564e-01  5.0192186012751416e-01  5.0525493125238885e-01  5.0836822614098620e-01  5.1122780875256724e-01  5.1380570294546901e-01  5.1606627691322238e-01  5.1796019872954424e-01  5.1942724915948668e-01  5.2040648189690408e-01  5.2085025112746108e-01  5.2073807985425358e-01  5.2008714986851501e-01  5.1895764710334880e-01  5.1745238229233081e-01  5.1571053737165251e-01  5.1389536127024604e-01  5.1217597475799681e-01  5.1070469648281902e-01  5.0959306819040806e-01  5.0889073475546909e-01  5.0857018422670663e-01  5.0851669452331694e-01  5.0851755821727529e-01  5.0823926475197156e-01  5.0717666148412066e-01  5.0455312695173393e-01  4.9914241668038084e-01  4.8898729487051767e-01  4.7143736242558548e-01  4.5290882653274583e-01  5.3009233402701783e-01  7.2102526966300029e-01  7.6995564227776803e-01  7.7541966292343367e-01  7.7493093575385585e-01  7.5770429419185126e-01  6.5284412879135034e-01  6.6678370963501421e-01  7.4979693377001122e-01  7.5993572861243852e-01  7.6037565157870890e-01  7.5946353816877854e-01  7.5802591363000715e-01  7.5495114133259877e-01  7.2696798488764991e-01  5.6542399014829203e-01  4.3590871562877320e-01  4.4561065966456737e-01  4.6693858683979106e-01  4.8090374790643625e-01  4.8932004803594847e-01  4.9422869555572996e-01  4.9702041181999213e-01  4.9857442599906265e-01  4.9937928568185208e-01  4.9961753928614910e-01  4.9923012607463602e-01  4.9796742323197457e-01  4.9542830146833650e-01  4.9108589395103053e-01  4.8429720497626683e-01  4.7429127542441912e-01  4.6013162933604873e-01  4.4078620345297786e-01  4.1846144292614518e-01  4.4676274464750459e-01  6.4050018503729089e-01  7.2602076893897838e-01  7.2568547773423975e-01  7.1550869138116380e-01  7.0508333213925189e-01  6.9588996230698752e-01  6.8873229971038652e-01  6.8419492913836399e-01  6.8264138787087381e-01  5.4719389564045950e-01  5.4662616829620803e-01  5.4496271351251346e-01  5.4231536427274096e-01  5.3884796529057588e-01  5.3474879953929322e-01  5.3020255688703977e-01  5.2536863820212465e-01  5.2037056941888715e-01  5.1529814910269822e-01  5.1022053452467953e-01  5.0520562332512919e-01  5.0033946891510539e-01  4.9573945800177099e-01  4.9155660401159024e-01  4.8796520163626345e-01  4.8514152463474569e-01  4.8323632063523408e-01  4.8234771428227735e-01  4.8250124536064748e-01  4.8364209978624478e-01  4.8564159601299955e-01  4.8831648365688074e-01  4.9145653113962884e-01  4.9485402271907547e-01  4.9832860648247451e-01  5.0174243828161658e-01  5.0500331712922197e-01  5.0805674678839718e-01  5.1087069926975071e-01  5.1341851742353717e-01  5.1566542389177517e-01  5.1756253569558075e-01  5.1904966328220037e-01  5.2006540947543123e-01  5.2056112931431020e-01  5.2051475755164645e-01  5.1994129338928174e-01  5.1889816196434158e-01  5.1748485672790678e-01  5.1583672248520496e-01  5.1411274681467867e-01  5.1247757792852167e-01  5.1107921391202193e-01  5.1002551983943445e-01  5.0936366392519083e-01  5.0906542650630282e-01  5.0901777001590676e-01  5.0901295767174493e-01  5.0872738984561849e-01  5.0767415325913445e-01  5.0511036067683779e-01  4.9987463106021551e-01  4.9013853484491887e-01  4.7344593530642826e-01  4.5375620357777025e-01  5.0671311762618099e-01  6.9758815074112668e-01  7.6565281275378294e-01  7.7431988161206822e-01  7.7333096321278227e-01  7.4852386907779700e-01  6.1886368839582984e-01  6.4657016015346447e-01  7.4621341202046210e-01  7.5929413515088962e-01  7.5998623575574042e-01  7.5903906606661797e-01  7.5746748757397586e-01  7.5325088126409978e-01  7.1583876272482194e-01  5.3969791719265003e-01  4.3368053192924322e-01  4.4747434148538567e-01  4.6805712144312633e-01  4.8152317363399622e-01  4.8967076673041704e-01  4.9443387720355886e-01  4.9714333092332480e-01  4.9864602182721118e-01  4.9941387122722186e-01  4.9962258454770053e-01  4.9921287797590680e-01  4.9793978954633572e-01  4.9541091766847878e-01  4.9111220949982115e-01  4.8441873824872522e-01  4.7458618866923191e-01  4.6072056619493612e-01  4.4184523501289819e-01  4.1949658962689967e-01  4.3456196380042633e-01  6.1071432993227182e-01  7.1991375122089973e-01  7.2540814910650708e-01  7.1618739972794776e-01  7.0609129190341369e-01  6.9713255502854166e-01  6.9015516888523432e-01  6.8573533745556692e-01  6.8422286250581221e-01  5.4369125346049740e-01  5.4316692623981999e-01  5.4163110711601092e-01  5.3918831443302695e-01  5.3599136878652343e-01  5.3221525958229388e-01  5.2803061226278813e-01  5.2358322914020172e-01  5.1898426002264886e-01  5.1431255281126409e-01  5.0962746299425654e-01  5.0498767076694995e-01  5.0047000187236990e-01  4.9618224011002976e-01  4.9226547906206780e-01  4.8888433122519248e-01  4.8620660309936109e-01  4.8437698456299672e-01  4.8349108027678256e-01  4.8357622516324045e-01  4.8458393343193623e-01  4.8639596567213200e-01  4.8884264020985890e-01  4.9172905994037014e-01  4.9486314125751735e-01  4.9807915648203244e-01  5.0125194270215090e-01  5.0429957206963683e-01  5.0717539304683867e-01  5.0985308622377379e-01  5.1230998058990862e-01  5.1451391116071377e-01  5.1641739629927330e-01  5.1796039278874340e-01  5.1908021669816773e-01  5.1972530891472302e-01  5.1986894798045458e-01  5.1951972534139712e-01  5.1872696240829075e-01  5.1758042839121310e-01  5.1620424414740629e-01  5.1474496329576147e-01  5.1335421249873570e-01  5.1216742707838314e-01  5.1128177591109081e-01  5.1073718241047616e-01  5.1050324664583535e-01  5.1047156506258151e-01  5.1044831929718382e-01  5.1013760510711836e-01  5.0910300922029283e-01  5.0669356537491728e-01  5.0192035571660165e-01  4.9328616372122275e-01  4.7881120912278025e-01  4.5908291662072159e-01  4.6576988359642635e-01  6.0135960704251112e-01  7.2960158417697130e-01  7.6085359090915916e-01  7.5651422126192291e-01  6.9146936070374421e-01  5.1691951302480443e-01  5.7711996425014933e-01  7.2785014168398054e-01  7.5598853014523293e-01  7.5847580202260256e-01  7.5748923135744650e-01  7.5473867706294351e-01  7.4313799225719768e-01  6.6311588533705867e-01  4.7920468847464648e-01  4.3308499458890837e-01  4.5265737579791193e-01  4.7115448585552822e-01  4.8326206069446015e-01  4.9066784088331555e-01  4.9502534252684377e-01  4.9750394420911931e-01  4.9886168559447613e-01  4.9952437805302990e-01  4.9964881155188617e-01  4.9917543829719058e-01  4.9787288636069860e-01  4.9537386300893888e-01  4.9120084086163401e-01  4.8477969882947858e-01  4.7543934743147276e-01  4.6239876145962511e-01  4.4482154119101369e-01  4.2316461637042047e-01  4.1489437279532798e-01  5.1979531271522961e-01  6.8479317203738710e-01  7.2138606978569475e-01  7.1736385968113081e-01  7.0877529280006157e-01  7.0060857593246917e-01  6.9419654319105473e-01  6.9013994678432244e-01  6.8875418954093925e-01  5.3814967895353594e-01  5.3769393194684800e-01  5.3635991218298562e-01  5.3424088392174263e-01  5.3147266416218342e-01  5.2820965641686335e-01  5.2460057986856190e-01  5.2076988696765514e-01  5.1680909699762667e-01  5.1277948328718914e-01  5.0872450142440329e-01  5.0468779335378122e-01  5.0073115060941764e-01  4.9694681541427915e-01  4.9345995946802224e-01  4.9041976851574864e-01  4.8798062908644890e-01  4.8627765324038402e-01  4.8540243743206074e-01  4.8538506418651828e-01  4.8618687865032989e-01  4.8770590592704582e-01  4.8979364165270312e-01  4.9227918394301939e-01  4.9499499972852368e-01  4.9779844857690009e-01  5.0058453420077043e-01  5.0328783090822926e-01  5.0587445704747469e-01  5.0832753947164722e-01  5.1063112573781855e-01  5.1275754354101089e-01  5.1466180363881586e-01  5.1628427391361431e-01  5.1756032339461455e-01  5.1843379434341863e-01  5.1887055110324609e-01  5.1886896073079436e-01  5.1846542515948291e-01  5.1773425496658598e-01  5.1678180485616898e-01  5.1573504181076779e-01  5.1472516671691959e-01  5.1386795636846727e-01  5.1324382234535681e-01  5.1288121527642327e-01  5.1274595044762350e-01  5.1273608690259498e-01  5.1267801976494387e-01  5.1231596299496707e-01  5.1128542445210967e-01  5.0906248479670568e-01  5.0488597262520618e-01  4.9766886462786014e-01  4.8602677812236256e-01  4.6931625926945159e-01  4.5399983972591029e-01  4.7827357553500660e-01  5.7928020618436660e-01  6.5376479011197264e-01  6.3841281829019325e-01  5.2782802195734513e-01  4.2819876017895320e-01  4.7247545981371375e-01  6.5053055651589675e-01  7.3472487898497851e-01  7.4970268366859782e-01  7.4911901118361435e-01  7.3753088255533827e-01  6.8402038272837684e-01  5.3506203114434370e-01  4.3622818448964590e-01  4.4010997725919992e-01  4.6006933628544566e-01  4.7558496920522980e-01  4.8581243178669470e-01  4.9216720246849399e-01  4.9594016449792883e-01  4.9808172311846860e-01  4.9922519052348396e-01  4.9973059179271456e-01  4.9972796838614891e-01  4.9915849212810781e-01  4.9781217920431947e-01  4.9536026600346911e-01  4.9138031673854654e-01  4.8537294887155163e-01  4.7677042720955809e-01  4.6494147590995449e-01  4.4923507904686655e-01  4.2949062574412300e-01  4.1031752093572038e-01  4.2903763481449547e-01  5.6721308772932788e-01  6.8554511569963050e-01  7.1190031525379749e-01  7.1056898728038731e-01  7.0501621512132995e-01  6.9995846024185959e-01  6.9665585247247719e-01  6.9551958288957672e-01  5.3098758711391003e-01  5.3062041124896675e-01  5.2954722824722988e-01  5.2784735099780877e-01  5.2563543460276974e-01  5.2304010122883227e-01  5.2018238626771918e-01  5.1715943011980270e-01  5.1403725061637817e-01  5.1085389570026374e-01  5.0763148793043766e-01  5.0439333288101162e-01  5.0118093470307246e-01  4.9806576422936683e-01  4.9515196951640567e-01  4.9256858818902027e-01  4.9045262107407828e-01  4.8892682303350787e-01  4.8807758207440749e-01  4.8793836809858515e-01  4.8848289733147437e-01  4.8962973493738521e-01  4.9125719928720546e-01  4.9322489937382258e-01  4.9539669467136871e-01  4.9765970255771314e-01  4.9993521004883129e-01  5.0217962288934459e-01  5.0437628009756563e-01  5.0652133848360958e-01  5.0860833712113196e-01  5.1061610492444176e-01  5.1250339154056668e-01  5.1421141571703977e-01  5.1567316561761556e-01  5.1682652608214319e-01  5.1762765762901219e-01  5.1806153015756606e-01  5.1814765864071333e-01  5.1794024537062688e-01  5.1752268437653259e-01  5.1699680424742100e-01  5.1646774445879540e-01  5.1602627881975405e-01  5.1573146141086246e-01  5.1559689018856658e-01  5.1558288347165093e-01  5.1559432304793607e-01  5.1548062971488839e-01  5.1503171441852980e-01  5.1396324152261486e-01  5.1188730998184784e-01  5.0827211182452303e-01  5.0241093004535875e-01  4.9346873516016182e-01  4.8082676801835800e-01  4.6544277503820891e-01  4.5281802986467168e-01  4.5546988705392943e-01  4.6872573699069542e-01  4.5923312135611416e-01  4.3099799661288507e-01  4.1397886894628427e-01  4.1824158549264290e-01  4.8819875361790249e-01  6.0988108954955067e-01  6.7129390952608348e-01  6.7341677892597207e-01  6.2321540284367760e-01  5.1559160055366260e-01  4.3875359262291364e-01  4.3430906584353368e-01  4.5166952995872039e-01  4.6835387085397889e-01  4.8059177769506339e-01  4.8879596272638509e-01  4.9398792407115227e-01  4.9709997871662076e-01  4.9885356850658275e-01  4.9974589313063383e-01  5.0006376913060013e-01  4.9990804081912066e-01  4.9922275683280082e-01  4.9782538196526238e-01  4.9543492513180315e-01  4.9169571335450685e-01  4.8619605816933725e-01  4.7848324606544540e-01  4.6807999569463998e-01  4.5452232084286581e-01  4.3752936551846039e-01  4.1802577796768281e-01  4.0309526230642156e-01  4.2726797580472575e-01  5.3513382975059565e-01  6.4264024118305962e-01  6.8689354691230997e-01  6.9903798965969988e-01  7.0102455107081674e-01  7.0059822478588729e-01  7.0026209261922134e-01  5.2274161301002220e-01  5.2247653662958049e-01  5.2170435487703470e-01  5.2048918442672787e-01  5.1892249874136631e-01  5.1710442289995628e-01  5.1512499925465338e-01  5.1305027090877764e-01  5.1091661563160395e-01  5.0873448308916824e-01  5.0650016653154051e-01  5.0421211963979562e-01  5.0188712947120639e-01  4.9957166892422605e-01  4.9734497889926305e-01  4.9531257386113370e-01  4.9359138476867082e-01  4.9228999436900034e-01  4.9148878181512956e-01  4.9122490147501274e-01  4.9148583556161685e-01  4.9221309432111915e-01  4.9331506935880942e-01  4.9468575898015260e-01  4.9622468113319107e-01  4.9785312935792375e-01  4.9952303544806087e-01  5.0121676726518327e-01  5.0293864528605958e-01  5.0470113565194863e-01  5.0650997400158693e-01  5.0835254093188142e-01  5.1019265327697527e-01  5.1197293811073585e-01  5.1362376933730014e-01  5.1507606740861545e-01  5.1627456618333212e-01  5.1718849350301466e-01  5.1781763043806572e-01  5.1819285744779608e-01  5.1837117121086851e-01  5.1842575083184672e-01  5.1843224188883341e-01  5.1845321564825675e-01  5.1852355090502156e-01  5.1863969072192329e-01  5.1875477373830214e-01  5.1877947554742565e-01  5.1858570796709635e-01  5.1800833973835669e-01  5.1684013819285035e-01  5.1481824597063197e-01  5.1160753068836662e-01  5.0679823596818652e-01  4.9995465247977422e-01  4.9078136349968632e-01  4.7947957662231633e-01  4.6726214250078257e-01  4.5617107244418631e-01  4.4770386065475409e-01  4.4136733803933575e-01  4.3566530007998572e-01  4.2923350028925195e-01  4.2276669501591041e-01  4.2287621334979436e-01  4.4308509146618119e-01  4.7003637834564471e-01  4.7203804363727175e-01  4.4847179689114397e-01  4.2975548747370934e-01  4.3375647717471005e-01  4.4842724422088692e-01  4.6376450397113989e-01  4.7631808855408597e-01  4.8554982251885825e-01  4.9188359770183254e-01  4.9596964157729645e-01  4.9843776209644569e-01  4.9980490985491222e-01  5.0044113497169518e-01  5.0056360496770647e-01  5.0024642219968163e-01  4.9943948406272032e-01  4.9799161948006115e-01  4.9567427429401423e-01  4.9220319083872088e-01  4.8725727257845353e-01  4.8049614544614400e-01  4.7158080355087606e-01  4.6020663841112519e-01  4.4617680725215808e-01  4.2961630122417205e-01  4.1182856761340703e-01  3.9773824280993286e-01  4.0355403570242376e-01  4.5183158581844102e-01  5.3153274406571138e-01  5.9837425983248971e-01  6.3428531248422948e-01  6.4961140641076398e-01  6.5379994608461800e-01  5.1402293646370256e-01  5.1386639231167885e-01  5.1341460382773829e-01  5.1271670203832509e-01  5.1184111569292068e-01  5.1085928425026983e-01  5.0982950469877497e-01  5.0878525016103604e-01  5.0773103373340256e-01  5.0664683316236891e-01  5.0549980418064766e-01  5.0426008563476121e-01  5.0291641866804315e-01  5.0148732881114555e-01  5.0002474407013608e-01  4.9860886168407004e-01  4.9733533945857650e-01  4.9629789150228126e-01  4.9557058711883378e-01  4.9519425799720945e-01  4.9517037603769454e-01  4.9546384193281923e-01  4.9601383014108674e-01  4.9674977767574902e-01  4.9760832728595605e-01  4.9854687472961901e-01  4.9955035990540136e-01  5.0062980932109269e-01  5.0181337338479759e-01  5.0313259538304256e-01  5.0460785207350034e-01  5.0623699003385469e-01  5.0799014270270970e-01  5.0981188541360822e-01  5.1162984889181617e-01  5.1336729517348467e-01  5.1495641079686238e-01  5.1634928396074042e-01  5.1752443439914053e-01  5.1848789942899109e-01  5.1926887595039561e-01  5.1991067903996580e-01  5.2045843639940081e-01  5.2094561026153596e-01  5.2138198174801142e-01  5.2174574136659002e-01  5.2198141165849410e-01  5.2200347296931338e-01  5.2170332842684075e-01  5.2095563494974928e-01  5.1962014952738012e-01  5.1753791564873175e-01  5.1452608965654401e-01  5.1038336961637576e-01  5.0492569336570214e-01  4.9807339638871306e-01  4.8999279824744590e-01  4.8122505873346294e-01  4.7265090328834597e-01  4.6512436293655274e-01  4.5889591208768166e-01  4.5333720971285535e-01  4.4743696500015212e-01  4.4069616344997881e-01  4.3386805658482064e-01  4.2867788201106372e-01  4.2667232136002942e-01  4.2741414774802611e-01  4.3125885900147815e-01  4.3952492273710536e-01  4.5095572385886662e-01  4.6317463705581458e-01  4.7425401434380166e-01  4.8328233941280363e-01  4.9008342026899565e-01  4.9486862600261466e-01  4.9801230376473510e-01  4.9991720769801323e-01  5.0093716780141617e-01  5.0133642657076316e-01  5.0127348913356196e-01  5.0080148717993000e-01  4.9987927683043709e-01  4.9838865465384879e-01  4.9615389000217069e-01  4.9296082416034526e-01  4.8857438767635780e-01  4.8275546541475434e-01  4.7528019410349992e-01  4.6596661027293218e-01  4.5471534627605303e-01  4.4157933981675124e-01  4.2689169729812682e-01  4.1159000825584607e-01  3.9772086202597162e-01  3.8961903225639960e-01  3.9409760938460198e-01  4.1181921491168649e-01  4.3340858825014766e-01  4.4936334951639506e-01  4.5509299861988295e-01  5.0546809356795031e-01  5.0541942786022265e-01  5.0528661372159989e-01  5.0510528256429810e-01  5.0492286394423413e-01  5.0478419566725596e-01  5.0471743252265477e-01  5.0472421306037984e-01  5.0477688663653930e-01  5.0482370558553125e-01  5.0480077098707621e-01  5.0464774269870993e-01  5.0432333714376898e-01  5.0381667972929134e-01  5.0315162926184520e-01  5.0238297441382995e-01  5.0158546154630490e-01  5.0083842541119206e-01  5.0020989674414962e-01  4.9974416762406010e-01  4.9945587314765222e-01  4.9933192982535696e-01  4.9934060306674899e-01  4.9944510289063859e-01  4.9961792723332410e-01  4.9985200279876368e-01  5.0016556145410251e-01  5.0059939784355034e-01  5.0120721940122104e-01  5.0204165959252511e-01  5.0313966650715247e-01  5.0451108700795322e-01  5.0613332342909190e-01  5.0795324019816124e-01  5.0989556463559105e-01  5.1187543847899386e-01  5.1381196487497616e-01  5.1563968964551976e-01  5.1731576407213098e-01  5.1882167750988528e-01  5.2015956348738746e-01  5.2134399891704697e-01  5.2239094307618872e-01  5.2330604271331760e-01  5.2407486693247662e-01  5.2465747570248222e-01  5.2498882206659936e-01  5.2498485104387782e-01  5.2455221449943223e-01  5.2359806714318169e-01  5.2203635527595860e-01  5.1978899542442836e-01  5.1678430884713855e-01  5.1295988913513224e-01  5.0828013593994248e-01  5.0277570365035029e-01  4.9659761125321450e-01  4.9005206903780735e-01  4.8355766277956341e-01  4.7748995156704455e-01  4.7198157674775854e-01  4.6685104691479706e-01  4.6177241527186469e-01  4.5660117677545964e-01  4.5164277194477093e-01  4.4770933577110567e-01  4.4586094057935199e-01  4.4697309551507880e-01  4.5125401680813798e-01  4.5809385036799688e-01  4.6636522463753594e-01  4.7484639459601563e-01  4.8259361836433423e-01  4.8906468767277300e-01  4.9407405161473761e-01  4.9768271094673755e-01  5.0008850905222180e-01  5.0153876183110369e-01  5.0226856573311174e-01  5.0246231447711487e-01  5.0223423876933460e-01  5.0162366701806638e-01  5.0060095395145454e-01  4.9908023893682674e-01  4.9693548737048820e-01  4.9401694380376315e-01  4.9016638678698987e-01  4.8523131398583835e-01  4.7907992321208193e-01  4.7161975639890424e-01  4.6282253975247795e-01  4.5275577298524017e-01  4.4162056507063824e-01  4.2978896856025106e-01  4.1785212835239804e-01  4.0666933224878493e-01  3.9727558294557536e-01  3.9065810959582842e-01  3.8709307314494174e-01  3.8574064353605086e-01  3.8545375923446068e-01  4.9768833296454895e-01  4.9774038683823302e-01  4.9790594881798550e-01  4.9820959943157239e-01  4.9868127916767441e-01  4.9934309867425936e-01  5.0019660235754260e-01  5.0121423673409482e-01  5.0233767303027899e-01  5.0348381833900124e-01  5.0455732195013681e-01  5.0546668534824546e-01  5.0614015373833376e-01  5.0653762771679200e-01  5.0665584805187514e-01  5.0652579734779257e-01  5.0620319316237994e-01  5.0575463371338814e-01  5.0524298268441004e-01  5.0471569001118910e-01  5.0419891081455903e-01  5.03698711308