<?xml version="1.0"?>
<VTKFile type="UnstructuredGrid"  version="0.1"  >
<UnstructuredGrid>
<Piece  NumberOfPoints="20201" NumberOfCells="40000">
<Points>
<DataArray  type="Float64"  NumberOfComponents="3"  format="ascii">0 0 0  2 0 0  4 0 0  6 0 0  8 0 0  10 0 0  12 0 0  14 0 0  16 0 0  18 0 0  20 0 0  22 0 0  24 0 0  26 0 0  28 0 0  30 0 0  32 0 0  34 0 0  36 0 0  38 0 0  40 0 0  42 0 0  44 0 0  46 0 0  48 0 0  50 0 0  52 0 0  54 0 0  56 0 0  58 0 0  60 0 0  62 0 0  64 0 0  66 0 0  68 0 0  70 0 0  72 0 0  74 0 0  76 0 0  78 0 0  80 0 0  82 0 0  84 0 0  86 0 0  88 0 0  90 0 0  92 0 0  94 0 0  96 0 0  98 0 0  100 0 0  102 0 0  104 0 0  106 0 0  108 0 0  110 0 0  112 0 0  114 0 0  116 0 0  118 0 0  120 0 0  122 0 0  124 0 0  126 0 0  128 0 0  130 0 0  132 0 0  134 0 0  136 0 0  138 0 0  140 0 0  142 0 0  144 0 0  146 0 0  148 0 0  150 0 0  152 0 0  154 0 0  156 0 0  158 0 0  160 0 0  162 0 0  164 0 0  166 0 0  168 0 0  170 0 0  172 0 0  174 0 0  176 0 0  178 0 0  180 0 0  182 0 0  184 0 0  186 0 0  188 0 0  190 0 0  192 0 0  194 0 0  196 0 0  198 0 0  200 0 0  0 2 0  2 2 0  4 2 0  6 2 0  8 2 0  10 2 0  12 2 0  14 2 0  16 2 0  18 2 0  20 2 0  22 2 0  24 2 0  26 2 0  28 2 0  30 2 0  32 2 0  34 2 0  36 2 0  38 2 0  40 2 0  42 2 0  44 2 0  46 2 0  48 2 0  50 2 0  52 2 0  54 2 0  56 2 0  58 2 0  60 2 0  62 2 0  64 2 0  66 2 0  68 2 0  70 2 0  72 2 0  74 2 0  76 2 0  78 2 0  80 2 0  82 2 0  84 2 0  86 2 0  88 2 0  90 2 0  92 2 0  94 2 0  96 2 0  98 2 0  100 2 0  102 2 0  104 2 0  106 2 0  108 2 0  110 2 0  112 2 0  114 2 0  116 2 0  118 2 0  120 2 0  122 2 0  124 2 0  126 2 0  128 2 0  130 2 0  132 2 0  134 2 0  136 2 0  138 2 0  140 2 0  142 2 0  144 2 0  146 2 0  148 2 0  150 2 0  152 2 0  154 2 0  156 2 0  158 2 0  160 2 0  162 2 0  164 2 0  166 2 0  168 2 0  170 2 0  172 2 0  174 2 0  176 2 0  178 2 0  180 2 0  182 2 0  184 2 0  186 2 0  188 2 0  190 2 0  192 2 0  194 2 0  196 2 0  198 2 0  200 2 0  0 4 0  2 4 0  4 4 0  6 4 0  8 4 0  10 4 0  12 4 0  14 4 0  16 4 0  18 4 0  20 4 0  22 4 0  24 4 0  26 4 0  28 4 0  30 4 0  32 4 0  34 4 0  36 4 0  38 4 0  40 4 0  42 4 0  44 4 0  46 4 0  48 4 0  50 4 0  52 4 0  54 4 0  56 4 0  58 4 0  60 4 0  62 4 0  64 4 0  66 4 0  68 4 0  70 4 0  72 4 0  74 4 0  76 4 0  78 4 0  80 4 0  82 4 0  84 4 0  86 4 0  88 4 0  90 4 0  92 4 0  94 4 0  96 4 0  98 4 0  100 4 0  102 4 0  104 4 0  106 4 0  108 4 0  110 4 0  112 4 0  114 4 0  116 4 0  118 4 0  120 4 0  122 4 0  124 4 0  126 4 0  128 4 0  130 4 0  132 4 0  134 4 0  136 4 0  138 4 0  140 4 0  142 4 0  144 4 0  146 4 0  148 4 0  150 4 0  152 4 0  154 4 0  156 4 0  158 4 0  160 4 0  162 4 0  164 4 0  166 4 0  168 4 0  170 4 0  172 4 0  174 4 0  176 4 0  178 4 0  180 4 0  182 4 0  184 4 0  186 4 0  188 4 0  190 4 0  192 4 0  194 4 0  196 4 0  198 4 0  200 4 0  0 6 0  2 6 0  4 6 0  6 6 0  8 6 0  10 6 0  12 6 0  14 6 0  16 6 0  18 6 0  20 6 0  22 6 0  24 6 0  26 6 0  28 6 0  30 6 0  32 6 0  34 6 0  36 6 0  38 6 0  40 6 0  42 6 0  44 6 0  46 6 0  48 6 0  50 6 0  52 6 0  54 6 0  56 6 0  58 6 0  60 6 0  62 6 0  64 6 0  66 6 0  68 6 0  70 6 0  72 6 0  74 6 0  76 6 0  78 6 0  80 6 0  82 6 0  84 6 0  86 6 0  88 6 0  90 6 0  92 6 0  94 6 0  96 6 0  98 6 0  100 6 0  102 6 0  104 6 0  106 6 0  108 6 0  110 6 0  112 6 0  114 6 0  116 6 0  118 6 0  120 6 0  122 6 0  124 6 0  126 6 0  128 6 0  130 6 0  132 6 0  134 6 0  136 6 0  138 6 0  140 6 0  142 6 0  144 6 0  146 6 0  148 6 0  150 6 0  152 6 0  154 6 0  156 6 0  158 6 0  160 6 0  162 6 0  164 6 0  166 6 0  168 6 0  170 6 0  172 6 0  174 6 0  176 6 0  178 6 0  180 6 0  182 6 0  184 6 0  186 6 0  188 6 0  190 6 0  192 6 0  194 6 0  196 6 0  198 6 0  200 6 0  0 8 0  2 8 0  4 8 0  6 8 0  8 8 0  10 8 0  12 8 0  14 8 0  16 8 0  18 8 0  20 8 0  22 8 0  24 8 0  26 8 0  28 8 0  30 8 0  32 8 0  34 8 0  36 8 0  38 8 0  40 8 0  42 8 0  44 8 0  46 8 0  48 8 0  50 8 0  52 8 0  54 8 0  56 8 0  58 8 0  60 8 0  62 8 0  64 8 0  66 8 0  68 8 0  70 8 0  72 8 0  74 8 0  76 8 0  78 8 0  80 8 0  82 8 0  84 8 0  86 8 0  88 8 0  90 8 0  92 8 0  94 8 0  96 8 0  98 8 0  100 8 0  102 8 0  104 8 0  106 8 0  108 8 0  110 8 0  112 8 0  114 8 0  116 8 0  118 8 0  120 8 0  122 8 0  124 8 0  126 8 0  128 8 0  130 8 0  132 8 0  134 8 0  136 8 0  138 8 0  140 8 0  142 8 0  144 8 0  146 8 0  148 8 0  150 8 0  152 8 0  154 8 0  156 8 0  158 8 0  160 8 0  162 8 0  164 8 0  166 8 0  168 8 0  170 8 0  172 8 0  174 8 0  176 8 0  178 8 0  180 8 0  182 8 0  184 8 0  186 8 0  188 8 0  190 8 0  192 8 0  194 8 0  196 8 0  198 8 0  200 8 0  0 10 0  2 10 0  4 10 0  6 10 0  8 10 0  10 10 0  12 10 0  14 10 0  16 10 0  18 10 0  20 10 0  22 10 0  24 10 0  26 10 0  28 10 0  30 10 0  32 10 0  34 10 0  36 10 0  38 10 0  40 10 0  42 10 0  44 10 0  46 10 0  48 10 0  50 10 0  52 10 0  54 10 0  56 10 0  58 10 0  60 10 0  62 10 0  64 10 0  66 10 0  68 10 0  70 10 0  72 10 0  74 10 0  76 10 0  78 10 0  80 10 0  82 10 0  84 10 0  86 10 0  88 10 0  90 10 0  92 10 0  94 10 0  96 10 0  98 10 0  100 10 0  102 10 0  104 10 0  106 10 0  108 10 0  110 10 0  112 10 0  114 10 0  116 10 0  118 10 0  120 10 0  122 10 0  124 10 0  126 10 0  128 10 0  130 10 0  132 10 0  134 10 0  136 10 0  138 10 0  140 10 0  142 10 0  144 10 0  146 10 0  148 10 0  150 10 0  152 10 0  154 10 0  156 10 0  158 10 0  160 10 0  162 10 0  164 10 0  166 10 0  168 10 0  170 10 0  172 10 0  174 10 0  176 10 0  178 10 0  180 10 0  182 10 0  184 10 0  186 10 0  188 10 0  190 10 0  192 10 0  194 10 0  196 10 0  198 10 0  200 10 0  0 12 0  2 12 0  4 12 0  6 12 0  8 12 0  10 12 0  12 12 0  14 12 0  16 12 0  18 12 0  20 12 0  22 12 0  24 12 0  26 12 0  28 12 0  30 12 0  32 12 0  34 12 0  36 12 0  38 12 0  40 12 0  42 12 0  44 12 0  46 12 0  48 12 0  50 12 0  52 12 0  54 12 0  56 12 0  58 12 0  60 12 0  62 12 0  64 12 0  66 12 0  68 12 0  70 12 0  72 12 0  74 12 0  76 12 0  78 12 0  80 12 0  82 12 0  84 12 0  86 12 0  88 12 0  90 12 0  92 12 0  94 12 0  96 12 0  98 12 0  100 12 0  102 12 0  104 12 0  106 12 0  108 12 0  110 12 0  112 12 0  114 12 0  116 12 0  118 12 0  120 12 0  122 12 0  124 12 0  126 12 0  128 12 0  130 12 0  132 12 0  134 12 0  136 12 0  138 12 0  140 12 0  142 12 0  144 12 0  146 12 0  148 12 0  150 12 0  152 12 0  154 12 0  156 12 0  158 12 0  160 12 0  162 12 0  164 12 0  166 12 0  168 12 0  170 12 0  172 12 0  174 12 0  176 12 0  178 12 0  180 12 0  182 12 0  184 12 0  186 12 0  188 12 0  190 12 0  192 12 0  194 12 0  196 12 0  198 12 0  200 12 0  0 14 0  2 14 0  4 14 0  6 14 0  8 14 0  10 14 0  12 14 0  14 14 0  16 14 0  18 14 0  20 14 0  22 14 0  24 14 0  26 14 0  28 14 0  30 14 0  32 14 0  34 14 0  36 14 0  38 14 0  40 14 0  42 14 0  44 14 0  46 14 0  48 14 0  50 14 0  52 14 0  54 14 0  56 14 0  58 14 0  60 14 0  62 14 0  64 14 0  66 14 0  68 14 0  70 14 0  72 14 0  74 14 0  76 14 0  78 14 0  80 14 0  82 14 0  84 14 0  86 14 0  88 14 0  90 14 0  92 14 0  94 14 0  96 14 0  98 14 0  100 14 0  102 14 0  104 14 0  106 14 0  108 14 0  110 14 0  112 14 0  114 14 0  116 14 0  118 14 0  120 14 0  122 14 0  124 14 0  126 14 0  128 14 0  130 14 0  132 14 0  134 14 0  136 14 0  138 14 0  140 14 0  142 14 0  144 14 0  146 14 0  148 14 0  150 14 0  152 14 0  154 14 0  156 14 0  158 14 0  160 14 0  162 14 0  164 14 0  166 14 0  168 14 0  170 14 0  172 14 0  174 14 0  176 14 0  178 14 0  180 14 0  182 14 0  184 14 0  186 14 0  188 14 0  190 14 0  192 14 0  194 14 0  196 14 0  198 14 0  200 14 0  0 16 0  2 16 0  4 16 0  6 16 0  8 16 0  10 16 0  12 16 0  14 16 0  16 16 0  18 16 0  20 16 0  22 16 0  24 16 0  26 16 0  28 16 0  30 16 0  32 16 0  34 16 0  36 16 0  38 16 0  40 16 0  42 16 0  44 16 0  46 16 0  48 16 0  50 16 0  52 16 0  54 16 0  56 16 0  58 16 0  60 16 0  62 16 0  64 16 0  66 16 0  68 16 0  70 16 0  72 16 0  74 16 0  76 16 0  78 16 0  80 16 0  82 16 0  84 16 0  86 16 0  88 16 0  90 16 0  92 16 0  94 16 0  96 16 0  98 16 0  100 16 0  102 16 0  104 16 0  106 16 0  108 16 0  110 16 0  112 16 0  114 16 0  116 16 0  118 16 0  120 16 0  122 16 0  124 16 0  126 16 0  128 16 0  130 16 0  132 16 0  134 16 0  136 16 0  138 16 0  140 16 0  142 16 0  144 16 0  146 16 0  148 16 0  150 16 0  152 16 0  154 16 0  156 16 0  158 16 0  160 16 0  162 16 0  164 16 0  166 16 0  168 16 0  170 16 0  172 16 0  174 16 0  176 16 0  178 16 0  180 16 0  182 16 0  184 16 0  186 16 0  188 16 0  190 16 0  192 16 0  194 16 0  196 16 0  198 16 0  200 16 0  0 18 0  2 18 0  4 18 0  6 18 0  8 18 0  10 18 0  12 18 0  14 18 0  16 18 0  18 18 0  20 18 0  22 18 0  24 18 0  26 18 0  28 18 0  30 18 0  32 18 0  34 18 0  36 18 0  38 18 0  40 18 0  42 18 0  44 18 0  46 18 0  48 18 0  50 18 0  52 18 0  54 18 0  56 18 0  58 18 0  60 18 0  62 18 0  64 18 0  66 18 0  68 18 0  70 18 0  72 18 0  74 18 0  76 18 0  78 18 0  80 18 0  82 18 0  84 18 0  86 18 0  88 18 0  90 18 0  92 18 0  94 18 0  96 18 0  98 18 0  100 18 0  102 18 0  104 18 0  106 18 0  108 18 0  110 18 0  112 18 0  114 18 0  116 18 0  118 18 0  120 18 0  122 18 0  124 18 0  126 18 0  128 18 0  130 18 0  132 18 0  134 18 0  136 18 0  138 18 0  140 18 0  142 18 0  144 18 0  146 18 0  148 18 0  150 18 0  152 18 0  154 18 0  156 18 0  158 18 0  160 18 0  162 18 0  164 18 0  166 18 0  168 18 0  170 18 0  172 18 0  174 18 0  176 18 0  178 18 0  180 18 0  182 18 0  184 18 0  186 18 0  188 18 0  190 18 0  192 18 0  194 18 0  196 18 0  198 18 0  200 18 0  0 20 0  2 20 0  4 20 0  6 20 0  8 20 0  10 20 0  12 20 0  14 20 0  16 20 0  18 20 0  20 20 0  22 20 0  24 20 0  26 20 0  28 20 0  30 20 0  32 20 0  34 20 0  36 20 0  38 20 0  40 20 0  42 20 0  44 20 0  46 20 0  48 20 0  50 20 0  52 20 0  54 20 0  56 20 0  58 20 0  60 20 0  62 20 0  64 20 0  66 20 0  68 20 0  70 20 0  72 20 0  74 20 0  76 20 0  78 20 0  80 20 0  82 20 0  84 20 0  86 20 0  88 20 0  90 20 0  92 20 0  94 20 0  96 20 0  98 20 0  100 20 0  102 20 0  104 20 0  106 20 0  108 20 0  110 20 0  112 20 0  114 20 0  116 20 0  118 20 0  120 20 0  122 20 0  124 20 0  126 20 0  128 20 0  130 20 0  132 20 0  134 20 0  136 20 0  138 20 0  140 20 0  142 20 0  144 20 0  146 20 0  148 20 0  150 20 0  152 20 0  154 20 0  156 20 0
[...]
<PointData  Scalars="f_271-0"> 
<DataArray  type="Float64"  Name="f_271-0"  format="ascii">6.6362064544381272e-01  6.5383956172235358e-01  6.3026785785497752e-01  6.0366661158869150e-01  5.8239852605337483e-01  5.6553914452835952e-01  5.5016480171159665e-01  5.3698724964663846e-01  5.2763899179013485e-01  5.2439212810739155e-01  5.2600356373793644e-01  5.2520780555312818e-01  5.1680167801802890e-01  5.0130062006990894e-01  4.8160176890704776e-01  4.6112831647276536e-01  4.4378840654119422e-01  4.3336608975738483e-01  4.3214442326218533e-01  4.4022312534103747e-01  4.5597585955817538e-01  4.7671348085899556e-01  4.9913876844394872e-01  5.1986169414722649e-01  5.3608211123944494e-01  5.4622215026393783e-01  5.5024850224863853e-01  5.4957329167375768e-01  5.4658071659366370e-01  5.4390573540334486e-01  5.4365176856738107e-01  5.4676133655271641e-01  5.5273145134310409e-01  5.5978184349004789e-01  5.6516548837442526e-01  5.6532457489249832e-01  5.5677073655956699e-01  5.3939132529515110e-01  5.1975749250703240e-01  5.0433365161616872e-01  4.8987344856644149e-01  4.7210523136870469e-01  4.5321418514139000e-01  4.3898417732193296e-01  4.3587905138389965e-01  4.4366765338103137e-01  4.5667643740487546e-01  4.6989469653029103e-01  4.8052858683816141e-01  4.8738495345438232e-01  4.9063942376296726e-01  4.9178775988223561e-01  4.9323721108757734e-01  4.9758347051873980e-01  5.0681359048949015e-01  5.2160650808535369e-01  5.4089082836975644e-01  5.6211183033012968e-01  5.8346661561013535e-01  6.0713331973481222e-01  6.3198891686286329e-01  6.4245694462013758e-01  6.2744179632071106e-01  6.0305302331501776e-01  5.9247635556140987e-01  5.8982405425960860e-01  5.8349483198763796e-01  5.7460315417633312e-01  5.6502193491508657e-01  5.5506487190658826e-01  5.4793964357145364e-01  5.4538014418171143e-01  5.4331458842125879e-01  5.3640839730912326e-01  5.2313228867449812e-01  5.0589527914406940e-01  4.8881039266722148e-01  4.7574990210426638e-01  4.6932423794126304e-01  4.7064350047920012e-01  4.7937631361117844e-01  4.9382428477687512e-01  5.1116682319157258e-01  5.2804260704025663e-01  5.4131774701251412e-01  5.4884800777817100e-01  5.5025938189939316e-01  5.4746672817874686e-01  5.4386663402863300e-01  5.4186583553757850e-01  5.3963067376348184e-01  5.3023451017573364e-01  5.2319723689417297e-01  5.5961362591480612e-01  5.8988676992011102e-01  5.7674872432082458e-01  5.5926937374226138e-01  5.4680809792525364e-01  5.3264725149274561e-01  5.1637606719894202e-01  5.0854219576625881e-01  6.5670666089158758e-01  6.4859494536146745e-01  6.2772895923025340e-01  6.0261535056052717e-01  5.8155210571207694e-01  5.6482816344727771e-01  5.4997093764025096e-01  5.3733747362488582e-01  5.2789726590751962e-01  5.2309477594500797e-01  5.2248588334750368e-01  5.2073309508350363e-01  5.1289639219056460e-01  4.9853746066178811e-01  4.7991093730523571e-01  4.6024538150540556e-01  4.4335374121752436e-01  4.3291707851993194e-01  4.3121770780312330e-01  4.3848868052898110e-01  4.5326399569766002e-01  4.7297720268709903e-01  4.9443392917339352e-01  5.1434598617843053e-01  5.3000198735239223e-01  5.3987704286666838e-01  5.4394207724768240e-01  5.4356721997186863e-01  5.4106198082247881e-01  5.3897478508750585e-01  5.3933324800558335e-01  5.4303278847832426e-01  5.4956216228121013e-01  5.5715755842355874e-01  5.6310274950467887e-01  5.6392974171106058e-01  5.5636125922947310e-01  5.4069015227009520e-01  5.2394210447737266e-01  5.1221223253236836e-01  5.0080299598119304e-01  4.8471924969843699e-01  4.6615361692397483e-01  4.5071209159632480e-01  4.4552597068553074e-01  4.5140382831928527e-01  4.6294727130754409e-01  4.7506951651077600e-01  4.8487825685093322e-01  4.9106967291442732e-01  4.9373660951753356e-01  4.9432301567743897e-01  4.9518572833598651e-01  4.9886688576077426e-01  5.0731547854461989e-01  5.2121300646766533e-01  5.3955117727548996e-01  5.5985068111458514e-01  5.8002453796596931e-01  6.0116348285319587e-01  6.2238270420292452e-01  6.3140137255928486e-01  6.1903629205566646e-01  5.9879275153660894e-01  5.8920929820177670e-01  5.8593776127736830e-01  5.7971063459045002e-01  5.7111144361471622e-01  5.6200473611846702e-01  5.5332201173170870e-01  5.4765882995414050e-01  5.4570719378178500e-01  5.4355491227500530e-01  5.3662013163355371e-01  5.2371043970510656e-01  5.0708346328907183e-01  4.9053641338287468e-01  4.7770392931822109e-01  4.7112241984998415e-01  4.7193840610982241e-01  4.7988455055755896e-01  4.9333257301446765e-01  5.0955515904316406e-01  5.2530726288793939e-01  5.3757454441784525e-01  5.4429546103898796e-01  5.4503461413887155e-01  5.4137890563685509e-01  5.3628980581682850e-01  5.3220115147684699e-01  5.2842559380020737e-01  5.1977777528711788e-01  5.1179758606980985e-01  5.4124668333197612e-01  5.7932337522033761e-01  5.7498767271965801e-01  5.5833995396090030e-01  5.4429483972225901e-01  5.2965546723540691e-01  5.1422202954163332e-01  5.0688816499958256e-01  6.3579332813971567e-01  6.3097050743996796e-01  6.1628489507993911e-01  5.9595457597139023e-01  5.7699295852566013e-01  5.6140250678151826e-01  5.4805173572302912e-01  5.3701157694129809e-01  5.2836744350482390e-01  5.2200776892851075e-01  5.1783983904388720e-01  5.1372534742517539e-01  5.0625533711893544e-01  4.9386020310201068e-01  4.7748752615559570e-01  4.5973238253165333e-01  4.4402810182440050e-01  4.3372319320117120e-01  4.3101675924337740e-01  4.3638340145989701e-01  4.4871436192718883e-01  4.6576331633136603e-01  4.8462943461047925e-01  5.0231557937010052e-01  5.1636116196531312e-01  5.2539059112524555e-01  5.2938745790873276e-01  5.2960435420916285e-01  5.2814083013809821e-01  5.2730264021753481e-01  5.2890923655676925e-01  5.3373885001657106e-01  5.4128164529543832e-01  5.4985811653700989e-01  5.5689750956157702e-01  5.5922877554254502e-01  5.5406867966490769e-01  5.4213824698673085e-01  5.3016467624243013e-01  5.2318632361162010e-01  5.1576257615217536e-01  5.0274271150379857e-01  4.8617668967416933e-01  4.7116613260749035e-01  4.6452048259579781e-01  4.6791072991374205e-01  4.7693861252053316e-01  4.8693948684671784e-01  4.9502964846813935e-01  4.9977434544824595e-01  5.0116153479036063e-01  5.0053456148625153e-01  5.0010311802940055e-01  5.0224017816856670e-01  5.0877210605199408e-01  5.2038235896789875e-01  5.3625626549856809e-01  5.5421737166625529e-01  5.7183841241912581e-01  5.8811459724208781e-01  6.0176717971275306e-01  6.0694822872960041e-01  5.9962671082189567e-01  5.8721943892998774e-01  5.7882199126554368e-01  5.7311124204441399e-01  5.6616832035781495e-01  5.5845548926524557e-01  5.5170534133427263e-01  5.4707891933550401e-01  5.4518723188635809e-01  5.4477764455287148e-01  5.4263251023487946e-01  5.3591812464867505e-01  5.2418477529230700e-01  5.0931081055530969e-01  4.9433924212101499e-01  4.8233826216778530e-01  4.7564143298464706e-01  4.7543912280443740e-01  4.8159551610777618e-01  4.9266393379684598e-01  5.0617492357310612e-01  5.1920200823886942e-01  5.2905425995415367e-01  5.3391456110862090e-01  5.3333652933884979e-01  5.2845954443209187e-01  5.2160385000097831e-01  5.1514790268646005e-01  5.0985569292486710e-01  5.0321267773224254e-01  4.9515474906879348e-01  5.0768783874243884e-01  5.4914750863638917e-01  5.6742111973827214e-01  5.5844220678116097e-01  5.4311517318093516e-01  5.2712012024165533e-01  5.1221540196422066e-01  5.0530028890555490e-01  6.0525141620867429e-01  6.0331370930912687e-01  5.9518361967119182e-01  5.8149590029041476e-01  5.6678628672947506e-01  5.5370162639939724e-01  5.4264610726719409e-01  5.3387894840585093e-01  5.2718111458475136e-01  5.2153975892668980e-01  5.1606624382746347e-01  5.0998413567796519e-01  5.0200218073510450e-01  4.9098958913955343e-01  4.7708332190386060e-01  4.6192531193991759e-01  4.4814308230961131e-01  4.3847798739159893e-01  4.3489838981334461e-01  4.3806156031796784e-01  4.4725752866696283e-01  4.6068411914130980e-01  4.7589218724522936e-01  4.9033043727485454e-01  5.0191482472697180e-01  5.0949296474812489e-01  5.1306933979151903e-01  5.1372362115073156e-01  5.1324583432355408e-01  5.1358657510517991e-01  5.1626807259634255e-01  5.2191756386317611e-01  5.3005733155225732e-01  5.3918595378157930e-01  5.4703939934942225e-01  5.5095967679144997e-01  5.4879256726633396e-01  5.4109388350420518e-01  5.3250225387504146e-01  5.2659815653697506e-01  5.2033478235712349e-01  5.1030231302076656e-01  4.9798790839338936e-01  4.8747682617158944e-01  4.8316540721004991e-01  4.8593509085276920e-01  4.9292610725107033e-01  5.0075509795276074e-01  5.0693600798705640e-01  5.1008657091325393e-01  5.1015404618289573e-01  5.0832866452061420e-01  5.0655889985883151e-01  5.0692878302815492e-01  5.1105632594252126e-01  5.1960469145950872e-01  5.3200850496612806e-01  5.4653989976528483e-01  5.6084889768223334e-01  5.7280756315483594e-01  5.8069456229435956e-01  5.8275415019424959e-01  5.7865285657526211e-01  5.7100563532183590e-01  5.6262162073933752e-01  5.5424219495720106e-01  5.4635500765447176e-01  5.4036852968866667e-01  5.3744908826622229e-01  5.3752559026384261e-01  5.3923859316563283e-01  5.4038224845696048e-01  5.3871361715600941e-01  5.3291039404392815e-01  5.2311277644647891e-01  5.1078613819781937e-01  4.9818516244310684e-01  4.8772874383412129e-01  4.8142021305288429e-01  4.8038305475724569e-01  4.8458554672424276e-01  4.9282858142045183e-01  5.0302524878041610e-01  5.1271231404417184e-01  5.1965338503209346e-01  5.2237699867443765e-01  5.2053977886989922e-01  5.1503041226645374e-01  5.0770356347922163e-01  5.0069578830573769e-01  4.9534910768972612e-01  4.9088562953278408e-01  4.8526234832674198e-01  4.8435809576877298e-01  5.0556646777584346e-01  5.3813081810972685e-01  5.5125734198868459e-01  5.4541835861347476e-01  5.3153732960669753e-01  5.1670829305129007e-01  5.0953578781747155e-01  5.7319423996486873e-01  5.7272153480481636e-01  5.6903815830523108e-01  5.6115539166764594e-01  5.5126292542829614e-01  5.4162822451184278e-01  5.3347463241698567e-01  5.2731429118974993e-01  5.2293764097400453e-01  5.1930191094070999e-01  5.1505799831697063e-01  5.0925760953874366e-01  5.0146274314502737e-01  4.9155664323017512e-01  4.7987233270501084e-01  4.6745856605069686e-01  4.5602757958522228e-01  4.4750839204076709e-01  4.4344381890326473e-01  4.4451573440460540e-01  4.5036015897822729e-01  4.5968386671823169e-01  4.7060942402495232e-01  4.8114562447313036e-01  4.8966792090539374e-01  4.9529231166111798e-01  4.9804861585773924e-01  4.9880963412042967e-01  4.9899727420981033e-01  5.0014511391191230e-01  5.0343470331733142e-01  5.0933114679401081e-01  5.1741548289455352e-01  5.2644623201400131e-01  5.3460614276001983e-01  5.3988723862958166e-01  5.4074845526430348e-01  5.3721374421304113e-01  5.3135196760840764e-01  5.2525237856985718e-01  5.1885512443857140e-01  5.1168491333225052e-01  5.0493003864172548e-01  5.0066201945524202e-01  5.0030964452950266e-01  5.0365146861630927e-01  5.0912725863814612e-01  5.1479444834759014e-01  5.1892280236481136e-01  5.2045156902143164e-01  5.1934493917662139e-01  5.1655518865322869e-01  5.1364986192767126e-01  5.1232193679452798e-01  5.1391129398211044e-01  5.1901996313043863e-01  5.2730101147793529e-01  5.3748342647067116e-01  5.4766866276313553e-01  5.5587090629462310e-01  5.6061185304358141e-01  5.6128376111994160e-01  5.5814232257637530e-01  5.5198728761008997e-01  5.4391367008263303e-01  5.3545643091908712e-01  5.2854897920359289e-01  5.2479281617451146e-01  5.2462871375405173e-01  5.2712403673924635e-01  5.3041929231509488e-01  5.3247820180465799e-01  5.3176047920245251e-01  5.2760328109297749e-01  5.2029464905429235e-01  5.1093472866617018e-01  5.0116893834803966e-01  4.9282138337032899e-01  4.8746422008988011e-01  4.8601399233500764e-01  4.8847521519274240e-01  4.9392068952346591e-01  5.0072334354589376e-01  5.0697424944191694e-01  5.1096720690794961e-01  5.1161885915912575e-01  5.0872607884120036e-01  5.0301036585280501e-01  4.9592533250070792e-01  4.8922026709155719e-01  4.8426797378950026e-01  4.8119572746764094e-01  4.7840895283625323e-01  4.7470189198755819e-01  4.7498263378151262e-01  4.8803406091253793e-01  5.0903935323811811e-01  5.2301468488135305e-01  5.2444531738734512e-01  5.1821551140682676e-01  5.1404111625935400e-01  5.4327637953497232e-01  5.4311106145840360e-01  5.4142243303833371e-01  5.3734777516400922e-01  5.3173207031959913e-01  5.2596478705691374e-01  5.2115625957019729e-01  5.1782749416307317e-01  5.1582397201054997e-01  5.1437347130828193e-01  5.1234138588478784e-01  5.0869196682798390e-01  5.0290415916409947e-01  4.9508269418321216e-01  4.8583081646526949e-01  4.7610174600850230e-01  4.6707518259229341e-01  4.5997423417215089e-01  4.5580138088896804e-01  4.5507254323277213e-01  4.5765225059864112e-01  4.6275959732396371e-01  4.6915989852633222e-01  4.7549240371632973e-01  4.8063285030206354e-01  4.8397947716301692e-01  4.8558339902551118e-01  4.8609560563161225e-01  4.8655189123791726e-01  4.8805563868497459e-01  4.9144373377183054e-01  4.9702642978105488e-01  5.0447179478835591e-01  5.1286287733812186e-01  5.2090383393951567e-01  5.2721784337290523e-01  5.3070168995792710e-01  5.3091206142438196e-01  5.2827829196575016e-01  5.2386861256257145e-01  5.1898106969207491e-01  5.1496346431865903e-01  5.1296282459111198e-01  5.1347802101808937e-01  5.1619753027897186e-01  5.2027303169478412e-01  5.2466674492918475e-01  5.2832637138819905e-01  5.3033481915802194e-01  5.3017294164522699e-01  5.2794061149930238e-01  5.2435538324943143e-01  5.2054220186050160e-01  5.1771940400095373e-01  5.1687107013204914e-01  5.1847773670095842e-01  5.2236689240421319e-01  5.2772693578439689e-01  5.3330352012053861e-01  5.3775216481847687e-01  5.4002881087760235e-01  5.3961935100608327e-01  5.3652518994452902e-01  5.3120369087730290e-01  5.2463996137044022e-01  5.1831594503275480e-01  5.1378127266200191e-01  5.1201699865600636e-01  5.1304868803585246e-01  5.1600036291678686e-01  5.1946594333607787e-01  5.2198720334750937e-01  5.2246133152492336e-01  5.2037869427704753e-01  5.1588579740592733e-01  5.0971614110926378e-01  5.0301754689913014e-01  4.9708843430301791e-01  4.9305718104011537e-01  4.9157870636035988e-01  4.9264291147030986e-01  4.9556843152757951e-01  4.9919338272580482e-01  5.0219846249790012e-01  5.0345110494988532e-01  5.0227309896350603e-01  4.9858868020738023e-01  4.9294802210656141e-01  4.8641491601418052e-01  4.8029851975949867e-01  4.7573701230305376e-01  4.7318072950939433e-01  4.7192378842484789e-01  4.7021659264186305e-01  4.6684725101280250e-01  4.6369762442466633e-01  4.6505984079058083e-01  4.7217793200661612e-01  4.8192667443636183e-01  4.9125478268757883e-01  4.9597312767258955e-01  5.1396297742719799e-01  5.1393880310555551e-01  5.1338744169586070e-01  5.1191850721452370e-01  5.0988353532833497e-01  5.0793079641685746e-01  5.0662811837576405e-01  5.0625550850315026e-01  5.0669508215005010e-01  5.0744885973328602e-01  5.0776117735104231e-01  5.0684052970434346e-01  5.0414385852422672e-01  4.9958990360096117e-01  4.9358447517311599e-01  4.8687742733471173e-01  4.8035265796987248e-01  4.7482454140351582e-01  4.7087985549897216e-01  4.6879486099882756e-01  4.6852025676348524e-01  4.6969958925805477e-01  4.7172891782073428e-01  4.7389688749621728e-01  4.7559084862976586e-01  4.7648963987888038e-01  4.7666431317505226e-01  4.7655433688141435e-01  4.7683220264352455e-01  4.7820013634982000e-01  4.8118084912110587e-01  4.8596330190327397e-01  4.9234086870867172e-01  4.9974703253334796e-01  5.0736803317056767e-01  5.1429684613533266e-01  5.1969862779026244e-01  5.2299344212801857e-01  5.2407633058765057e-01  5.2349901815565247e-01  5.2240076101783872e-01  5.2206699441356041e-01  5.2334703942517635e-01  5.2633278173282849e-01  5.3044903954250977e-01  5.3477703039642943e-01  5.3836582675985212e-01  5.4044452024836520e-01  5.4057146167538284e-01  5.3872694170616764e-01  5.3529866212857768e-01  5.3094600321441154e-01  5.2641251228877561e-01  5.2237719751475264e-01  5.1936815859601315e-01  5.1769368412223160e-01  5.1736391738057952e-01  5.1804530061026632e-01  5.1911086788419147e-01  5.1979904060737769e-01  5.1942851794252864e-01  5.1759312997553775e-01  5.1428894683210447e-01  5.0995668931917471e-01  5.0540949229146692e-01  5.0161715155478914e-01  4.9940026530508536e-01  4.9916969663069666e-01  5.0081886026658773e-01  5.0378106057590544e-01  5.0720178361096491e-01  5.1016305642852355e-01  5.1190184798742266e-01  5.1197543314724714e-01  5.1034587972414225e-01  5.0737612161158574e-01  5.0374125560185989e-01  5.0026284731608617e-01  4.9768517557002534e-01  4.9644228083890124e-01  4.9650336804460971e-01  4.9738550356189842e-01  4.9834103212418468e-01  4.9860906539825162e-01  4.9759896087347949e-01  4.9498570897346839e-01  4.9078303050835620e-01  4.8539420510714776e-01  4.7955751405001174e-01  4.7415977592702896e-01  4.6998775430903456e-01  4.6748077063081933e-01  4.6650391939302321e-01  4.6622799365568118e-01  4.6536476813063199e-01  4.6295415725964623e-01  4.5931952862244224e-01  4.5628031713047201e-01  4.5701690602201273e-01  4.6470268603759718e-01  4.7158577964140891e-01  4.8522510300901767e-01  4.8547803851589910e-01  4.8602956632628364e-01  4.8670240951006999e-01  4.8763430666320334e-01  4.8904396060643540e-01  4.9104768329726378e-01  4.9360849088054737e-01  4.9654759933145243e-01  4.9958465544058750e-01  5.0233856653944531e-01  5.0431650460985322e-01  5.0502532372791298e-01  5.0419949481010884e-01  5.0193523537993945e-01  4.9861676005423772e-01  4.9476273538319598e-01  4.9091065660095812e-01  4.8748828472480477e-01  4.8466813746689452e-01  4.8236683513662010e-01  4.8041425791716519e-01  4.7867608545678869e-01  4.7704158719537176e-01  4.7540947119925875e-01  4.7374971853723802e-01  4.7218264156026835e-01  4.7099394093245656e-01  4.7056529976783862e-01  4.7126906449687161e-01  4.7338320116352706e-01  4.7703485653251299e-01  4.8215610557718858e-01  4.8845829813252095e-01  4.9545333259042335e-01  5.0253718668900327e-01  5.0911959654902816e-01  5.1476845956474759e-01  5.1933678472413169e-01  5.2302101336251583e-01  5.2628654570087530e-01  5.2966012803907458e-01  5.3349220536647834e-01  5.3780811645548288e-01  5.4228538460230546e-01  5.4632759122555841e-01  5.4920778182471830e-01  5.5027715688278456e-01  5.4920900090822777e-01  5.4616370593930486e-01  5.4172370152491867e-01  5.3659088495184382e-01  5.3127494324321434e-01  5.2602896532732712e-01  5.2101669741245993e-01  5.1644510255115805e-01  5.1249989640064797e-01  5.0919408412015932e-01  5.0631061902045549e-01  5.0349821177562382e-01  5.0045148842356091e-01  4.9706325206174906e-01  4.9347711093225693e-01  4.9004049618759898e-01  4.8720071191982967e-01  4.8538663267609000e-01  4.8490298946625632e-01  4.8585441838429666e-01  4.8811221839019681e-01  4.9133089081150233e-01  4.9501215176287766e-01  4.9860275048230107e-01  5.0160207230546383e-01  5.0365366299488390e-01  5.0460522242237449e-01  5.0453166682260364e-01  5.0371204500039291e-01  5.0254585023650011e-01  5.0141284815242204e-01  5.0052485103033206e-01  4.9985259125495662e-01  4.9917515295836878e-01  4.9819205490331614e-01  4.9659298386360051e-01  4.9408571852100036e-01  4.9048754648801834e-01  4.8589115489552004e-01  4.8072168656551234e-01  4.7556299834003429e-01  4.7093291366612589e-01  4.6722301640478170e-01  4.6472260001983956e-01  4.6354402456697918e-01  4.6349271770399325e-01  4.6405509851894283e-01  4.6455000943622077e-01  4.6437214511117741e-01  4.6339893629194678e-01  4.6316242112176498e-01  4.6703153156034360e-01  4.7133851733444854e-01  4.5976142941166553e-01  4.6019524231789344e-01  4.6152030073834205e-01  4.6376385629794153e-01  4.6691829632790888e-01  4.7093221852978107e-01  4.7571704927780228e-01  4.8109903710135432e-01  4.8674242404943835e-01  4.9225838685645112e-01  4.9743932957004661e-01  5.0220593951088355e-01  5.0628033348777723e-01  5.0917272223988130e-01  5.1057847179830507e-01  5.1055003550869793e-01  5.0928811933502560e-01  5.0707184251295356e-01  5.0435674755687543e-01  5.0149872763386383e-01  4.9835065900207093e-01  4.94558453710