<?xml version="1.0"?>
<VTKFile type="UnstructuredGrid"  version="0.1"  >
<UnstructuredGrid>
<Piece  NumberOfPoints="20201" NumberOfCells="40000">
<Points>
<DataArray  type="Float64"  NumberOfComponents="3"  format="ascii">0 0 0  2 0 0  4 0 0  6 0 0  8 0 0  10 0 0  12 0 0  14 0 0  16 0 0  18 0 0  20 0 0  22 0 0  24 0 0  26 0 0  28 0 0  30 0 0  32 0 0  34 0 0  36 0 0  38 0 0  40 0 0  42 0 0  44 0 0  46 0 0  48 0 0  50 0 0  52 0 0  54 0 0  56 0 0  58 0 0  60 0 0  62 0 0  64 0 0  66 0 0  68 0 0  70 0 0  72 0 0  74 0 0  76 0 0  78 0 0  80 0 0  82 0 0  84 0 0  86 0 0  88 0 0  90 0 0  92 0 0  94 0 0  96 0 0  98 0 0  100 0 0  102 0 0  104 0 0  106 0 0  108 0 0  110 0 0  112 0 0  114 0 0  116 0 0  118 0 0  120 0 0  122 0 0  124 0 0  126 0 0  128 0 0  130 0 0  132 0 0  134 0 0  136 0 0  138 0 0  140 0 0  142 0 0  144 0 0  146 0 0  148 0 0  150 0 0  152 0 0  154 0 0  156 0 0  158 0 0  160 0 0  162 0 0  164 0 0  166 0 0  168 0 0  170 0 0  172 0 0  174 0 0  176 0 0  178 0 0  180 0 0  182 0 0  184 0 0  186 0 0  188 0 0  190 0 0  192 0 0  194 0 0  196 0 0  198 0 0  200 0 0  0 2 0  2 2 0  4 2 0  6 2 0  8 2 0  10 2 0  12 2 0  14 2 0  16 2 0  18 2 0  20 2 0  22 2 0  24 2 0  26 2 0  28 2 0  30 2 0  32 2 0  34 2 0  36 2 0  38 2 0  40 2 0  42 2 0  44 2 0  46 2 0  48 2 0  50 2 0  52 2 0  54 2 0  56 2 0  58 2 0  60 2 0  62 2 0  64 2 0  66 2 0  68 2 0  70 2 0  72 2 0  74 2 0  76 2 0  78 2 0  80 2 0  82 2 0  84 2 0  86 2 0  88 2 0  90 2 0  92 2 0  94 2 0  96 2 0  98 2 0  100 2 0  102 2 0  104 2 0  106 2 0  108 2 0  110 2 0  112 2 0  114 2 0  116 2 0  118 2 0  120 2 0  122 2 0  124 2 0  126 2 0  128 2 0  130 2 0  132 2 0  134 2 0  136 2 0  138 2 0  140 2 0  142 2 0  144 2 0  146 2 0  148 2 0  150 2 0  152 2 0  154 2 0  156 2 0  158 2 0  160 2 0  162 2 0  164 2 0  166 2 0  168 2 0  170 2 0  172 2 0  174 2 0  176 2 0  178 2 0  180 2 0  182 2 0  184 2 0  186 2 0  188 2 0  190 2 0  192 2 0  194 2 0  196 2 0  198 2 0  200 2 0  0 4 0  2 4 0  4 4 0  6 4 0  8 4 0  10 4 0  12 4 0  14 4 0  16 4 0  18 4 0  20 4 0  22 4 0  24 4 0  26 4 0  28 4 0  30 4 0  32 4 0  34 4 0  36 4 0  38 4 0  40 4 0  42 4 0  44 4 0  46 4 0  48 4 0  50 4 0  52 4 0  54 4 0  56 4 0  58 4 0  60 4 0  62 4 0  64 4 0  66 4 0  68 4 0  70 4 0  72 4 0  74 4 0  76 4 0  78 4 0  80 4 0  82 4 0  84 4 0  86 4 0  88 4 0  90 4 0  92 4 0  94 4 0  96 4 0  98 4 0  100 4 0  102 4 0  104 4 0  106 4 0  108 4 0  110 4 0  112 4 0  114 4 0  116 4 0  118 4 0  120 4 0  122 4 0  124 4 0  126 4 0  128 4 0  130 4 0  132 4 0  134 4 0  136 4 0  138 4 0  140 4 0  142 4 0  144 4 0  146 4 0  148 4 0  150 4 0  152 4 0  154 4 0  156 4 0  158 4 0  160 4 0  162 4 0  164 4 0  166 4 0  168 4 0  170 4 0  172 4 0  174 4 0  176 4 0  178 4 0  180 4 0  182 4 0  184 4 0  186 4 0  188 4 0  190 4 0  192 4 0  194 4 0  196 4 0  198 4 0  200 4 0  0 6 0  2 6 0  4 6 0  6 6 0  8 6 0  10 6 0  12 6 0  14 6 0  16 6 0  18 6 0  20 6 0  22 6 0  24 6 0  26 6 0  28 6 0  30 6 0  32 6 0  34 6 0  36 6 0  38 6 0  40 6 0  42 6 0  44 6 0  46 6 0  48 6 0  50 6 0  52 6 0  54 6 0  56 6 0  58 6 0  60 6 0  62 6 0  64 6 0  66 6 0  68 6 0  70 6 0  72 6 0  74 6 0  76 6 0  78 6 0  80 6 0  82 6 0  84 6 0  86 6 0  88 6 0  90 6 0  92 6 0  94 6 0  96 6 0  98 6 0  100 6 0  102 6 0  104 6 0  106 6 0  108 6 0  110 6 0  112 6 0  114 6 0  116 6 0  118 6 0  120 6 0  122 6 0  124 6 0  126 6 0  128 6 0  130 6 0  132 6 0  134 6 0  136 6 0  138 6 0  140 6 0  142 6 0  144 6 0  146 6 0  148 6 0  150 6 0  152 6 0  154 6 0  156 6 0  158 6 0  160 6 0  162 6 0  164 6 0  166 6 0  168 6 0  170 6 0  172 6 0  174 6 0  176 6 0  178 6 0  180 6 0  182 6 0  184 6 0  186 6 0  188 6 0  190 6 0  192 6 0  194 6 0  196 6 0  198 6 0  200 6 0  0 8 0  2 8 0  4 8 0  6 8 0  8 8 0  10 8 0  12 8 0  14 8 0  16 8 0  18 8 0  20 8 0  22 8 0  24 8 0  26 8 0  28 8 0  30 8 0  32 8 0  34 8 0  36 8 0  38 8 0  40 8 0  42 8 0  44 8 0  46 8 0  48 8 0  50 8 0  52 8 0  54 8 0  56 8 0  58 8 0  60 8 0  62 8 0  64 8 0  66 8 0  68 8 0  70 8 0  72 8 0  74 8 0  76 8 0  78 8 0  80 8 0  82 8 0  84 8 0  86 8 0  88 8 0  90 8 0  92 8 0  94 8 0  96 8 0  98 8 0  100 8 0  102 8 0  104 8 0  106 8 0  108 8 0  110 8 0  112 8 0  114 8 0  116 8 0  118 8 0  120 8 0  122 8 0  124 8 0  126 8 0  128 8 0  130 8 0  132 8 0  134 8 0  136 8 0  138 8 0  140 8 0  142 8 0  144 8 0  146 8 0  148 8 0  150 8 0  152 8 0  154 8 0  156 8 0  158 8 0  160 8 0  162 8 0  164 8 0  166 8 0  168 8 0  170 8 0  172 8 0  174 8 0  176 8 0  178 8 0  180 8 0  182 8 0  184 8 0  186 8 0  188 8 0  190 8 0  192 8 0  194 8 0  196 8 0  198 8 0  200 8 0  0 10 0  2 10 0  4 10 0  6 10 0  8 10 0  10 10 0  12 10 0  14 10 0  16 10 0  18 10 0  20 10 0  22 10 0  24 10 0  26 10 0  28 10 0  30 10 0  32 10 0  34 10 0  36 10 0  38 10 0  40 10 0  42 10 0  44 10 0  46 10 0  48 10 0  50 10 0  52 10 0  54 10 0  56 10 0  58 10 0  60 10 0  62 10 0  64 10 0  66 10 0  68 10 0  70 10 0  72 10 0  74 10 0  76 10 0  78 10 0  80 10 0  82 10 0  84 10 0  86 10 0  88 10 0  90 10 0  92 10 0  94 10 0  96 10 0  98 10 0  100 10 0  102 10 0  104 10 0  106 10 0  108 10 0  110 10 0  112 10 0  114 10 0  116 10 0  118 10 0  120 10 0  122 10 0  124 10 0  126 10 0  128 10 0  130 10 0  132 10 0  134 10 0  136 10 0  138 10 0  140 10 0  142 10 0  144 10 0  146 10 0  148 10 0  150 10 0  152 10 0  154 10 0  156 10 0  158 10 0  160 10 0  162 10 0  164 10 0  166 10 0  168 10 0  170 10 0  172 10 0  174 10 0  176 10 0  178 10 0  180 10 0  182 10 0  184 10 0  186 10 0  188 10 0  190 10 0  192 10 0  194 10 0  196 10 0  198 10 0  200 10 0  0 12 0  2 12 0  4 12 0  6 12 0  8 12 0  10 12 0  12 12 0  14 12 0  16 12 0  18 12 0  20 12 0  22 12 0  24 12 0  26 12 0  28 12 0  30 12 0  32 12 0  34 12 0  36 12 0  38 12 0  40 12 0  42 12 0  44 12 0  46 12 0  48 12 0  50 12 0  52 12 0  54 12 0  56 12 0  58 12 0  60 12 0  62 12 0  64 12 0  66 12 0  68 12 0  70 12 0  72 12 0  74 12 0  76 12 0  78 12 0  80 12 0  82 12 0  84 12 0  86 12 0  88 12 0  90 12 0  92 12 0  94 12 0  96 12 0  98 12 0  100 12 0  102 12 0  104 12 0  106 12 0  108 12 0  110 12 0  112 12 0  114 12 0  116 12 0  118 12 0  120 12 0  122 12 0  124 12 0  126 12 0  128 12 0  130 12 0  132 12 0  134 12 0  136 12 0  138 12 0  140 12 0  142 12 0  144 12 0  146 12 0  148 12 0  150 12 0  152 12 0  154 12 0  156 12 0  158 12 0  160 12 0  162 12 0  164 12 0  166 12 0  168 12 0  170 12 0  172 12 0  174 12 0  176 12 0  178 12 0  180 12 0  182 12 0  184 12 0  186 12 0  188 12 0  190 12 0  192 12 0  194 12 0  196 12 0  198 12 0  200 12 0  0 14 0  2 14 0  4 14 0  6 14 0  8 14 0  10 14 0  12 14 0  14 14 0  16 14 0  18 14 0  20 14 0  22 14 0  24 14 0  26 14 0  28 14 0  30 14 0  32 14 0  34 14 0  36 14 0  38 14 0  40 14 0  42 14 0  44 14 0  46 14 0  48 14 0  50 14 0  52 14 0  54 14 0  56 14 0  58 14 0  60 14 0  62 14 0  64 14 0  66 14 0  68 14 0  70 14 0  72 14 0  74 14 0  76 14 0  78 14 0  80 14 0  82 14 0  84 14 0  86 14 0  88 14 0  90 14 0  92 14 0  94 14 0  96 14 0  98 14 0  100 14 0  102 14 0  104 14 0  106 14 0  108 14 0  110 14 0  112 14 0  114 14 0  116 14 0  118 14 0  120 14 0  122 14 0  124 14 0  126 14 0  128 14 0  130 14 0  132 14 0  134 14 0  136 14 0  138 14 0  140 14 0  142 14 0  144 14 0  146 14 0  148 14 0  150 14 0  152 14 0  154 14 0  156 14 0  158 14 0  160 14 0  162 14 0  164 14 0  166 14 0  168 14 0  170 14 0  172 14 0  174 14 0  176 14 0  178 14 0  180 14 0  182 14 0  184 14 0  186 14 0  188 14 0  190 14 0  192 14 0  194 14 0  196 14 0  198 14 0  200 14 0  0 16 0  2 16 0  4 16 0  6 16 0  8 16 0  10 16 0  12 16 0  14 16 0  16 16 0  18 16 0  20 16 0  22 16 0  24 16 0  26 16 0  28 16 0  30 16 0  32 16 0  34 16 0  36 16 0  38 16 0  40 16 0  42 16 0  44 16 0  46 16 0  48 16 0  50 16 0  52 16 0  54 16 0  56 16 0  58 16 0  60 16 0  62 16 0  64 16 0  66 16 0  68 16 0  70 16 0  72 16 0  74 16 0  76 16 0  78 16 0  80 16 0  82 16 0  84 16 0  86 16 0  88 16 0  90 16 0  92 16 0  94 16 0  96 16 0  98 16 0  100 16 0  102 16 0  104 16 0  106 16 0  108 16 0  110 16 0  112 16 0  114 16 0  116 16 0  118 16 0  120 16 0  122 16 0  124 16 0  126 16 0  128 16 0  130 16 0  132 16 0  134 16 0  136 16 0  138 16 0  140 16 0  142 16 0  144 16 0  146 16 0  148 16 0  150 16 0  152 16 0  154 16 0  156 16 0  158 16 0  160 16 0  162 16 0  164 16 0  166 16 0  168 16 0  170 16 0  172 16 0  174 16 0  176 16 0  178 16 0  180 16 0  182 16 0  184 16 0  186 16 0  188 16 0  190 16 0  192 16 0  194 16 0  196 16 0  198 16 0  200 16 0  0 18 0  2 18 0  4 18 0  6 18 0  8 18 0  10 18 0  12 18 0  14 18 0  16 18 0  18 18 0  20 18 0  22 18 0  24 18 0  26 18 0  28 18 0  30 18 0  32 18 0  34 18 0  36 18 0  38 18 0  40 18 0  42 18 0  44 18 0  46 18 0  48 18 0  50 18 0  52 18 0  54 18 0  56 18 0  58 18 0  60 18 0  62 18 0  64 18 0  66 18 0  68 18 0  70 18 0  72 18 0  74 18 0  76 18 0  78 18 0  80 18 0  82 18 0  84 18 0  86 18 0  88 18 0  90 18 0  92 18 0  94 18 0  96 18 0  98 18 0  100 18 0  102 18 0  104 18 0  106 18 0  108 18 0  110 18 0  112 18 0  114 18 0  116 18 0  118 18 0  120 18 0  122 18 0  124 18 0  126 18 0  128 18 0  130 18 0  132 18 0  134 18 0  136 18 0  138 18 0  140 18 0  142 18 0  144 18 0  146 18 0  148 18 0  150 18 0  152 18 0  154 18 0  156 18 0  158 18 0  160 18 0  162 18 0  164 18 0  166 18 0  168 18 0  170 18 0  172 18 0  174 18 0  176 18 0  178 18 0  180 18 0  182 18 0  184 18 0  186 18 0  188 18 0  190 18 0  192 18 0  194 18 0  196 18 0  198 18 0  200 18 0  0 20 0  2 20 0  4 20 0  6 20 0  8 20 0  10 20 0  12 20 0  14 20 0  16 20 0  18 20 0  20 20 0  22 20 0  24 20 0  26 20 0  28 20 0  30 20 0  32 20 0  34 20 0  36 20 0  38 20 0  40 20 0  42 20 0  44 20 0  46 20 0  48 20 0  50 20 0  52 20 0  54 20 0  56 20 0  58 20 0  60 20 0  62 20 0  64 20 0  66 20 0  68 20 0  70 20 0  72 20 0  74 20 0  76 20 0  78 20 0  80 20 0  82 20 0  84 20 0  86 20 0  88 20 0  90 20 0  92 20 0  94 20 0  96 20 0  98 20 0  100 20 0  102 20 0  104 20 0  106 20 0  108 20 0  110 20 0  112 20 0  114 20 0  116 20 0  118 20 0  120 20 0  122 20 0  124 20 0  126 20 0  128 20 0  130 20 0  132 20 0  134 20 0  136 20 0  138 20 0  140 20 0  142 20 0  144 20 0  146 20 0  148 20 0  150 20 0  152 20 0  154 20 0  156 20 0
[...]
<PointData  Scalars="f_271-0"> 
<DataArray  type="Float64"  Name="f_271-0"  format="ascii">6.5721251516652224e-01  6.4856708858464074e-01  6.2718605961261731e-01  6.0269662444331240e-01  5.8196585408954693e-01  5.6521744283860920e-01  5.5069521712634817e-01  5.3838834876537356e-01  5.2945663979761459e-01  5.2506600318263119e-01  5.2395345057753762e-01  5.2136172468224373e-01  5.1317835563642578e-01  4.9900947584770466e-01  4.8097306003168272e-01  4.6219706532708094e-01  4.4626798824565445e-01  4.3651868905099389e-01  4.3500106201908950e-01  4.4194681418990561e-01  4.5599292694570132e-01  4.7470751711245573e-01  4.9509401481332049e-01  5.1411630078168757e-01  5.2928793961929943e-01  5.3919619015942488e-01  5.4377403298793714e-01  5.4421886086499294e-01  5.4258002099836455e-01  5.4112745330556122e-01  5.4166953431509535e-01  5.4500923608388974e-01  5.5069630828244576e-01  5.5708805443224962e-01  5.6152971847086808e-01  5.6068445830469493e-01  5.5159128975085125e-01  5.3426220531906454e-01  5.1562979448857482e-01  5.0727632815443990e-01  5.0632758473887152e-01  4.9234688219342065e-01  4.6437411232717823e-01  4.4394962837716617e-01  4.4057575598034832e-01  4.4833235659534221e-01  4.6035506409360488e-01  4.7240532535214369e-01  4.8218126952846080e-01  4.8869885860261392e-01  4.9214036405752792e-01  4.9381966237268171e-01  4.9583760487258177e-01  5.0044755748242875e-01  5.0933688750253103e-01  5.2298853689529490e-01  5.4024465364032659e-01  5.5832409077967360e-01  5.7528514111301743e-01  6.0084863183530246e-01  6.4866554928337161e-01  6.7183888807413117e-01  6.3017179000278534e-01  5.8451805130117918e-01  5.8888007809087950e-01  6.1983486880427552e-01  6.2944259035260264e-01  6.1596887195036754e-01  5.8470621827313507e-01  5.5293710647395267e-01  5.4151925393104783e-01  5.4143445121072975e-01  5.4058562760264184e-01  5.3436244353396822e-01  5.2236715755078145e-01  5.0690715355196647e-01  4.9153865775975525e-01  4.7964216808208582e-01  4.7359354317535962e-01  4.7446322961731341e-01  4.8197540259858423e-01  4.9459622696132544e-01  5.0981050408270656e-01  5.2464224782413205e-01  5.3633444174115463e-01  5.4305791764255407e-01  5.4454361224406256e-01  5.4234833650119119e-01  5.3911781196250907e-01  5.3619782247324888e-01  5.2970778595258083e-01  5.1093567630877246e-01  5.0067075304560926e-01  5.7295698781504822e-01  6.1657342213815614e-01  5.9105613390187051e-01  5.6411651225756587e-01  5.4585739271885625e-01  5.3079499899503335e-01  5.1817449082849076e-01  5.1289137726052647e-01  6.5022416325396015e-01  6.4263810183476289e-01  6.2337072685238404e-01  6.0049848322345145e-01  5.8050130362266394e-01  5.6414906842503032e-01  5.5006662219866187e-01  5.3816696575399936e-01  5.2926172859928211e-01  5.2414869352727356e-01  5.2186378070824468e-01  5.1858153182720357e-01  5.1058239511953485e-01  4.9711941253736586e-01  4.7989177075134504e-01  4.6180181204779414e-01  4.4630296522875323e-01  4.3663120669673933e-01  4.3482029149450679e-01  4.4117579996826450e-01  4.5444885282424519e-01  4.7231728176980486e-01  4.9188292033336795e-01  5.1020021893957235e-01  5.2485780817931393e-01  5.3448783082873919e-01  5.3902822992446109e-01  5.3964257782721736e-01  5.3831871802263365e-01  5.3725508066822636e-01  5.3819812894238994e-01  5.4191455913439412e-01  5.4794930432673272e-01  5.5468100641256346e-01  5.5951016266706100e-01  5.5921376694840408e-01  5.5100442293663854e-01  5.3513456013420324e-01  5.1889248279241806e-01  5.1408544872997541e-01  5.1678275460374368e-01  5.0466313545079455e-01  4.7593413825538022e-01  4.5315727077694234e-01  4.4772775267440545e-01  4.5410909071981248e-01  4.6514344116982320e-01  4.7642888457061544e-01  4.8559841579269997e-01  4.9161525763310560e-01  4.9461564698687277e-01  4.9587168278511196e-01  4.9743746109124715e-01  5.0151879246737530e-01  5.0977276894970969e-01  5.2269389032299185e-01  5.3920592847653093e-01  5.5668603588064780e-01  5.7288494770729348e-01  5.9358335324233980e-01  6.2826043822520483e-01  6.4528828815647410e-01  6.1487973988412603e-01  5.8136658324090529e-01  5.8299754093350764e-01  6.0653548785035249e-01  6.1481697184731654e-01  6.0090148881166450e-01  5.7260416128914882e-01  5.4835190953062651e-01  5.4093108636628928e-01  5.4140448059761326e-01  5.4037559391136147e-01  5.3415658033582614e-01  5.2250576389698999e-01  5.0758009108694280e-01  4.9269669441211283e-01  4.8105992942214421e-01  4.7497560109506398e-01  4.7552064607550593e-01  4.8246143562350502e-01  4.9432612772404172e-01  5.0868203394520428e-01  5.2265133507479378e-01  5.3357298254754471e-01  5.3967651779344894e-01  5.4065332127274279e-01  5.3786794711842045e-01  5.3370124674461261e-01  5.2956014743180690e-01  5.2263372469854519e-01  5.0549338956242340e-01  4.9144743361324478e-01  5.5026668353457020e-01  6.0934570990155312e-01  5.9349643148358555e-01  5.6664155691815532e-01  5.4683249351276830e-01  5.3080530163781903e-01  5.1797560055201408e-01  5.1271203332876814e-01  6.3032682852373811e-01  6.2515506220916095e-01  6.1104888444600536e-01  5.9267607534440936e-01  5.7518198225173411e-01  5.6026849536059931e-01  5.4752862575903938e-01  5.3688434944911689e-01  5.2853931512691754e-01  5.2252316935582643e-01  5.1815641178818361e-01  5.1331805313918222e-01  5.0543243810752148e-01  4.9339062252583116e-01  4.7805635972814053e-01  4.6171733355875061e-01  4.4739575844389484e-01  4.3801659516539271e-01  4.3552109030258784e-01  4.4036775930946798e-01  4.5158737386414677e-01  4.6715240625086280e-01  4.8444408589376753e-01  5.0077733361425558e-01  5.1395572555061475e-01  5.2273951236998462e-01  5.2708117393915921e-01  5.2804870247188773e-01  5.2745599249403896e-01  5.2730002900403605e-01  5.2915525505825567e-01  5.3369246126128278e-01  5.4045460667348078e-01  5.4790234398703430e-01  5.5361886349995859e-01  5.5470488959831343e-01  5.4879036486370403e-01  5.3643652101346850e-01  5.2468723673200679e-01  5.2435041270513350e-01  5.3090062996576237e-01  5.2233365684516464e-01  4.9568561764758118e-01  4.7207612502958096e-01  4.6428719412506592e-01  4.6825507228944541e-01  4.7716059096214575e-01  4.8665564163369057e-01  4.9435011198271611e-01  4.9913101632460455e-01  5.0104985269556046e-01  5.0127475588247072e-01  5.0172211967117575e-01  5.0445296240053650e-01  5.1102973934817608e-01  5.2197112045537175e-01  5.3641516554129776e-01  5.5215915236902435e-01  5.6669756632212920e-01  5.8023951491117753e-01  5.9483804067541868e-01  6.0096712434096800e-01  5.8910054867774808e-01  5.7380273137906490e-01  5.6910513477447111e-01  5.7382109364059419e-01  5.7368887135832691e-01  5.6224765908277208e-01  5.4726594329062173e-01  5.3917917100769674e-01  5.3885799951709179e-01  5.4032499472931828e-01  5.3903624260573046e-01  5.3304323396828279e-01  5.2243374173454449e-01  5.0900749001607870e-01  4.9550290897556420e-01  4.8467887251551539e-01  4.7863987966367394e-01  4.7845060854848320e-01  4.8397125444650962e-01  4.9389503992471168e-01  5.0602016293726004e-01  5.1774396849610582e-01  5.2667400597327951e-01  5.3121863150899218e-01  5.3103615877710042e-01  5.2716236291214380e-01  5.2153590223843760e-01  5.1569573818337799e-01  5.0863225650880617e-01  4.9544615138175069e-01  4.7774823586571469e-01  4.9983733965116994e-01  5.7478034350266705e-01  5.9547636242275470e-01  5.7620880082715009e-01  5.5413711743235428e-01  5.3550475055718227e-01  5.2149804446423143e-01  5.1595917451138129e-01  6.0213124808304885e-01  5.9935269919354783e-01  5.9089289902382913e-01  5.7831366058296074e-01  5.6482683924790877e-01  5.5251387310389355e-01  5.4195862636609160e-01  5.3332421668539021e-01  5.2647324834888642e-01  5.2084504184439240e-01  5.1561972732020023e-01  5.0968367294317563e-01  5.0174038015512989e-01  4.9100356926138966e-01  4.7783195616392043e-01  4.6378316905275352e-01  4.5118605984619148e-01  4.4243285147057543e-01  4.3923961142255941e-01  4.4217855320362742e-01  4.5060946225457815e-01  4.6291354725737133e-01  4.7689480779334220e-01  4.9026957674427335e-01  5.0116972940207860e-01  5.0854967156784914e-01  5.1238450368400623e-01  5.1359959906086594e-01  5.1374972894742410e-01  5.1453423604626058e-01  5.1727860643432844e-01  5.2252437181510070e-01  5.2983490788328647e-01  5.3783591349529514e-01  5.4443067279121737e-01  5.4720295712781908e-01  5.4427587202144756e-01  5.3608700055639902e-01  5.2756389993453778e-01  5.2587984676464195e-01  5.2871446511461939e-01  5.2242680382910733e-01  5.0451975656978509e-01  4.8831078734717920e-01  4.8261727852257574e-01  4.8550067284664272e-01  4.9234724157486642e-01  4.9975731760861114e-01  5.0562175627795136e-01  5.0886673763546297e-01  5.0949098481443555e-01  5.0851473321064200e-01  5.0762487935451817e-01  5.0863899885808439e-01  5.1295508667634671e-01  5.2110073563867576e-01  5.3247563344201387e-01  5.4539372324314683e-01  5.5760375858053846e-01  5.6734280251420544e-01  5.7369651072849581e-01  5.7516512105131645e-01  5.7081663500088287e-01  5.6288167871845496e-01  5.5424309340684719e-01  5.4627721202850454e-01  5.3870117527965844e-01  5.3232673003700592e-01  5.2971793055714012e-01  5.3133356861427450e-01  5.3461484801713666e-01  5.3662549292688777e-01  5.3544592318512441e-01  5.3024185253399336e-01  5.2132634042951853e-01  5.1010359826598362e-01  4.9866594710156309e-01  4.8922228659718986e-01  4.8356558276186756e-01  4.8267338806424237e-01  4.8648975878896578e-01  4.9393164552868402e-01  5.0313723194578708e-01  5.1191077632317683e-01  5.1825385592358009e-01  5.2085359071507686e-01  5.1941755764623943e-01  5.1474776960775159e-01  5.0842992127118791e-01  5.0203078052294337e-01  4.9574373659293131e-01  4.8698812634027894e-01  4.7265774407975286e-01  4.6495890984683647e-01  5.0229954611829397e-01  5.6123270233580691e-01  5.7925972310415341e-01  5.6878546018514675e-01  5.5143999937942367e-01  5.3663757245885124e-01  5.3064938544216589e-01  5.7189042040245130e-01  5.7063047429510938e-01  5.6625238419820012e-01  5.5872371403496335e-01  5.4960458230030429e-01  5.4065424463852374e-01  5.3291815049527946e-01  5.2679537342013816e-01  5.2209494785061528e-01  5.1807572573003347e-01  5.1375423655711050e-01  5.0824733402408517e-01  5.0093160366609668e-01  4.9157741670967647e-01  4.8055627657040728e-01  4.6894819281912459e-01  4.5837701429917332e-01  4.5058597248644072e-01  4.4692493811458611e-01  4.4796193813540042e-01  4.5334313123474740e-01  4.6190371755084847e-01  4.7196758237047864e-01  4.8175510527555321e-01  4.8980541390841453e-01  4.9531020535955861e-01  4.9827180105581603e-01  4.9944355182673161e-01  5.0007018019415994e-01  5.0149908825502454e-01  5.0476787567693959e-01  5.1027971030258179e-01  5.1764978969164233e-01  5.2574653799377646e-01  5.3289705222934680e-01  5.3724588122525196e-01  5.3736944441968415e-01  5.3325646474161625e-01  5.2714538495853691e-01  5.2233988048080104e-01  5.1910326917603278e-01  5.1387832014929047e-01  5.0617008677403486e-01  5.0040982027119718e-01  4.9955091046653571e-01  5.0283854090716362e-01  5.0815023527694458e-01  5.1350529498814745e-01  5.1740679750064078e-01  5.1902209357433438e-01  5.1836724377250498e-01  5.1628075791300299e-01  5.1413483514384728e-01  5.1341113864217447e-01  5.1527055090162377e-01  5.2020608691305181e-01  5.2785131334703184e-01  5.3700866298449623e-01  5.4594984295124716e-01  5.5296152744085036e-01  5.5687481685704243e-01  5.5722618254400469e-01  5.5409270326870042e-01  5.4790911311282164e-01  5.3954656097093812e-01  5.3063067016119170e-01  5.2347235411373783e-01  5.2005193867546984e-01  5.2070988162847076e-01  5.2397083459420102e-01  5.2763515006187411e-01  5.2980398771180681e-01  5.2924048256893685e-01  5.2545458148751922e-01  5.1875228883835667e-01  5.1017144182378760e-01  5.0124708516584993e-01  4.9365334920031928e-01  4.8880446173504921e-01  4.8750469307740940e-01  4.8973723032349836e-01  4.9465792998835084e-01  5.0080505002740294e-01  5.0646910803548362e-01  5.1011961940946882e-01  5.1077898480564576e-01  5.0825936650244607e-01  5.0320429133339339e-01  4.9688630066495149e-01  4.9071463943511751e-01  4.8541708660891536e-01  4.8003638886505640e-01  4.7177852528348363e-01  4.5968536150265898e-01  4.5446020073134291e-01  4.7635697440232644e-01  5.1657588993335923e-01  5.4382005440777115e-01  5.5122342309005512e-01  5.4887412622935450e-01  5.4671451849908059e-01  5.4256676632023226e-01  5.4201333663082529e-01  5.3991540085287559e-01  5.3593581732018214e-01  5.3071158782700656e-01  5.2536714774839233e-01  5.2081866000436716e-01  5.1748210336394174e-01  5.1520932331448899e-01  5.1335486760786619e-01  5.1101526890566873e-01  5.0736737479538996e-01  5.0193511273846381e-01  4.9470390922060969e-01  4.8612626301281275e-01  4.7706379550617339e-01  4.6865093080363940e-01  4.6206291150255524e-01  4.5823193207889501e-01  4.5760407457627983e-01  4.6001922294784153e-01  4.6474816616886094e-01  4.7067561149525533e-01  4.7658373413372934e-01  4.8146293820218644e-01  4.8476360611739516e-01  4.8651730764264928e-01  4.8729480866882263e-01  4.8801528097953600e-01  4.8966145460896632e-01  4.9297973310254112e-01  4.9824657417088158e-01  5.0516083998623840e-01  5.1288236475256188e-01  5.2019795334187480e-01  5.2578618521038734e-01  5.2857671963308639e-01  5.2817691250457266e-01  5.2516130325430033e-01  5.2085102315666754e-01  5.1657778329889137e-01  5.1324670570386632e-01  5.1161784852549208e-01  5.1224757493131134e-01  5.1496985026693798e-01  5.1897006261619227e-01  5.2321587403451630e-01  5.2670192156773854e-01  5.2861219502545465e-01  5.2853548817105089e-01  5.2662389809184929e-01  5.2356116401748187e-01  5.2035783237955191e-01  5.1807561521745016e-01  5.1755794136171684e-01  5.1920742506943163e-01  5.2285094490231587e-01  5.2774234548096766e-01  5.3273870211591523e-01  5.3662938995759957e-01  5.3849320993929528e-01  5.3788931911675053e-01  5.3481705657836009e-01  5.2964781601248612e-01  5.2322584264592120e-01  5.1694682494569100e-01  5.1241612542763959e-01  5.1070571679617716e-01  5.1180753791196587e-01  5.1473697852568134e-01  5.1806498572409421e-01  5.2043019839464988e-01  5.2085518459701818e-01  5.1890458086141289e-01  5.1473198098388273e-01  5.0902396095326674e-01  5.0284250293290378e-01  4.9738000215562961e-01  4.9366534198816170e-01  4.9228992149001627e-01  4.9323867743736383e-01  4.9589025993359959e-01  4.9919121872332362e-01  5.0194231657370258e-01  5.0310372335560738e-01  5.0204315788677378e-01  4.9868590410704955e-01  4.9354079443470023e-01  4.8757431647923200e-01  4.8191191769212643e-01  4.7736509436630031e-01  4.7383949095118366e-01  4.6990439347469787e-01  4.6328797511486175e-01  4.5323140901405834e-01  4.4405044628274459e-01  4.4419421324044112e-01  4.5670895627538904e-01  4.7671908337760838e-01  4.9606783583686898e-01  5.0449906094077734e-01  5.1401989177880625e-01  5.1385125795984343e-01  5.1313772511403577e-01  5.1167817846752328e-01  5.0973018170905715e-01  5.0786023018155080e-01  5.0658589758040329e-01  5.0614227550337809e-01  5.0639723326390640e-01  5.0688464494255581e-01  5.0693598152483510e-01  5.0588310520306812e-01  5.0327564028256666e-01  4.9903336099055884e-01  4.9347739395075491e-01  4.8724478705467339e-01  4.8113483017973391e-01  4.7593313661605413e-01  4.7224254263908466e-01  4.7035485490499973e-01  4.7020273036110005e-01  4.7140185460415851e-01  4.7335890352014093e-01  4.7542003926603899e-01  4.7704089577671360e-01  4.7794130107884686e-01  4.7819212180164283e-01  4.7819730972393976e-01  4.7857342300068384e-01  4.7996627285327065e-01  4.8286122573922863e-01  4.8743779884631999e-01  4.9350128823497386e-01  5.0050337505166553e-01  5.0764282484743994e-01  5.1402256625872167e-01  5.1883895175672634e-01  5.2158597236390603e-01  5.2224951422007859e-01  5.2142972116009501e-01  5.2026401053077764e-01  5.2002050629878172e-01  5.2148954054591679e-01  5.2463678072013986e-01  5.2878072584882863e-01  5.3300505216219507e-01  5.3644038159895147e-01  5.3839520132172702e-01  5.3847710858571007e-01  5.3671158779184303e-01  5.3353187905152011e-01  5.2959404970286694e-01  5.2555978988684426e-01  5.2199684585376360e-01  5.1936028752550267e-01  5.1793497546231115e-01  5.1772946820204324e-01  5.1841390285788869e-01  5.1937781767376667e-01  5.1990501685515189e-01  5.1939088057810123e-01  5.1750737418958470e-01  5.1427588941338831e-01  5.1007983105053545e-01  5.0563352629857738e-01  5.0184905490061238e-01  4.9956458559486816e-01  4.9923818182958957e-01  5.0078294684650992e-01  5.0362027535937004e-01  5.0688665523228460e-01  5.0968272406734827e-01  5.1128717466343498e-01  5.1130115060369385e-01  5.0971324833617515e-01  5.0688507672775296e-01  5.0345944922742913e-01  5.0019806733978567e-01  4.9777366195343298e-01  4.9657097508614251e-01  4.9656961039786252e-01  4.9735977494850508e-01  4.9827898483033894e-01  4.9860267041265882e-01  4.9772339915085251e-01  4.9529632156188225e-01  4.9134378993277877e-01  4.8627994350054887e-01  4.8081393281034379e-01  4.7575044676643663e-01  4.7173762277377379e-01  4.6898637832860729e-01  4.6701422449919000e-01  4.6461026784507109e-01  4.6031457156723748e-01  4.5343963772369417e-01  4.4509475167938722e-01  4.3848521744387614e-01  4.3791325209798332e-01  4.4469542574502829e-01  4.4997048397304223e-01  4.8663788122864005e-01  4.8678441396790972e-01  4.8714831363704153e-01  4.8765722459542865e-01  4.8840948156543579e-01  4.8960946953846429e-01  4.9141621061164104e-01  4.9383528581117325e-01  4.9667941452915254e-01  4.9960341806708281e-01  5.0217857407197208e-01  5.0395850688053179e-01  5.0455406856156304e-01  5.0375085514893347e-01  5.0161002856985237e-01  4.9845862639550020e-01  4.9478201154686863e-01  4.9110199994389392e-01  4.8785626863977738e-01  4.8526491172169584e-01  4.8327579181893043e-01  4.8167313278045454e-01  4.8023683586982296e-01  4.7880785142760413e-01  4.7729137400682653e-01  4.7568607301358018e-01  4.7413444240481051e-01  4.7293098752361251e-01  4.7246138256398323e-01  4.7310691917053194e-01  4.7515550768616782e-01  4.7872941206599678e-01  4.8373331761693494e-01  4.8984311447912576e-01  4.9655225607323367e-01  5.0326588370940017e-01  5.0941788548519240e-01  5.1459586466459051e-01  5.1866471550019377e-01  5.2184742126471695e-01  5.2467598621497680e-01  5.2776111656172398e-01  5.3148056671074906e-01  5.3578948913893465e-01  5.4024925311348615e-01  5.4418779119624949e-01  5.4687763433639824e-01  5.4772196976594612e-01  5.4647510478344097e-01  5.4340126814565093e-01  5.3916644531065561e-01  5.3445253063866704e-01  5.2964630859458561e-01  5.2490083751563787e-01  5.2037255834975638e-01  5.1627899399333010e-01  5.1276602303917629e-01  5.0978984984430209e-01  5.0712178529160556e-01  5.0445348259796663e-01  5.0153329222632259e-01  4.9827029427220954e-01  4.9477750784017621e-01  4.9135826023783596e-01  4.8844510137383595e-01  4.8649596981266585e-01  4.8586624003027029e-01  4.8669824060901540e-01  4.8886964470814359e-01  4.9201542577639251e-01  4.9560957587057874e-01  4.9907821885784054e-01  5.0191462436183887e-01  5.0377475688730355e-01  5.0454022394800446e-01  5.0433382786917158e-01  5.0346933060542021e-01  5.0233345850489952e-01  5.0124097685110336e-01  5.0034087071796507e-01  4.9961979406692547e-01  4.9894991555134532e-01  4.9809934811280665e-01  4.9672703195657725e-01  4.9446070166793227e-01  4.9108178245390133e-01  4.8669720591246129e-01  4.8173833611477784e-01  4.7677856152188647e-01  4.7233903562672364e-01  4.6880590834888430e-01  4.6639325553676514e-01  4.6505242927123558e-01  4.6438253762714421e-01  4.6368746554570617e-01  4.6223106478222037e-01  4.5963594600562568e-01  4.5643976677916814e-01  4.5458253137967247e-01  4.5586450092873115e-01  4.5755991240859117e-01  4.6237285411724860e-01  4.6273439973772468e-01  4.6385015070816116e-01  4.6577833636959431e-01  4.6855556876138249e-01  4.7218511260909185e-01  4.7663822359369168e-01  4.8180023041609027e-01  4.8737569927835506e-01  4.9292238750000755e-01  4.9805855781432051e-01  5.0256962598239574e-01  5.0625956457836141e-01  5.0883895734319318e-01  5.1006956788186364e-01  5.0993405021468852e-01  5.0862266568896330e-01  5.0646757921842267e-01  5.0389210172865884e-01  5.0120277381655687e-01  4.9834440786568956e-01  4.95043766382