<?xml version="1.0"?>
<VTKFile type="UnstructuredGrid"  version="0.1"  >
<UnstructuredGrid>
<Piece  NumberOfPoints="20201" NumberOfCells="40000">
<Points>
<DataArray  type="Float64"  NumberOfComponents="3"  format="ascii">0 0 0  2 0 0  4 0 0  6 0 0  8 0 0  10 0 0  12 0 0  14 0 0  16 0 0  18 0 0  20 0 0  22 0 0  24 0 0  26 0 0  28 0 0  30 0 0  32 0 0  34 0 0  36 0 0  38 0 0  40 0 0  42 0 0  44 0 0  46 0 0  48 0 0  50 0 0  52 0 0  54 0 0  56 0 0  58 0 0  60 0 0  62 0 0  64 0 0  66 0 0  68 0 0  70 0 0  72 0 0  74 0 0  76 0 0  78 0 0  80 0 0  82 0 0  84 0 0  86 0 0  88 0 0  90 0 0  92 0 0  94 0 0  96 0 0  98 0 0  100 0 0  102 0 0  104 0 0  106 0 0  108 0 0  110 0 0  112 0 0  114 0 0  116 0 0  118 0 0  120 0 0  122 0 0  124 0 0  126 0 0  128 0 0  130 0 0  132 0 0  134 0 0  136 0 0  138 0 0  140 0 0  142 0 0  144 0 0  146 0 0  148 0 0  150 0 0  152 0 0  154 0 0  156 0 0  158 0 0  160 0 0  162 0 0  164 0 0  166 0 0  168 0 0  170 0 0  172 0 0  174 0 0  176 0 0  178 0 0  180 0 0  182 0 0  184 0 0  186 0 0  188 0 0  190 0 0  192 0 0  194 0 0  196 0 0  198 0 0  200 0 0  0 2 0  2 2 0  4 2 0  6 2 0  8 2 0  10 2 0  12 2 0  14 2 0  16 2 0  18 2 0  20 2 0  22 2 0  24 2 0  26 2 0  28 2 0  30 2 0  32 2 0  34 2 0  36 2 0  38 2 0  40 2 0  42 2 0  44 2 0  46 2 0  48 2 0  50 2 0  52 2 0  54 2 0  56 2 0  58 2 0  60 2 0  62 2 0  64 2 0  66 2 0  68 2 0  70 2 0  72 2 0  74 2 0  76 2 0  78 2 0  80 2 0  82 2 0  84 2 0  86 2 0  88 2 0  90 2 0  92 2 0  94 2 0  96 2 0  98 2 0  100 2 0  102 2 0  104 2 0  106 2 0  108 2 0  110 2 0  112 2 0  114 2 0  116 2 0  118 2 0  120 2 0  122 2 0  124 2 0  126 2 0  128 2 0  130 2 0  132 2 0  134 2 0  136 2 0  138 2 0  140 2 0  142 2 0  144 2 0  146 2 0  148 2 0  150 2 0  152 2 0  154 2 0  156 2 0  158 2 0  160 2 0  162 2 0  164 2 0  166 2 0  168 2 0  170 2 0  172 2 0  174 2 0  176 2 0  178 2 0  180 2 0  182 2 0  184 2 0  186 2 0  188 2 0  190 2 0  192 2 0  194 2 0  196 2 0  198 2 0  200 2 0  0 4 0  2 4 0  4 4 0  6 4 0  8 4 0  10 4 0  12 4 0  14 4 0  16 4 0  18 4 0  20 4 0  22 4 0  24 4 0  26 4 0  28 4 0  30 4 0  32 4 0  34 4 0  36 4 0  38 4 0  40 4 0  42 4 0  44 4 0  46 4 0  48 4 0  50 4 0  52 4 0  54 4 0  56 4 0  58 4 0  60 4 0  62 4 0  64 4 0  66 4 0  68 4 0  70 4 0  72 4 0  74 4 0  76 4 0  78 4 0  80 4 0  82 4 0  84 4 0  86 4 0  88 4 0  90 4 0  92 4 0  94 4 0  96 4 0  98 4 0  100 4 0  102 4 0  104 4 0  106 4 0  108 4 0  110 4 0  112 4 0  114 4 0  116 4 0  118 4 0  120 4 0  122 4 0  124 4 0  126 4 0  128 4 0  130 4 0  132 4 0  134 4 0  136 4 0  138 4 0  140 4 0  142 4 0  144 4 0  146 4 0  148 4 0  150 4 0  152 4 0  154 4 0  156 4 0  158 4 0  160 4 0  162 4 0  164 4 0  166 4 0  168 4 0  170 4 0  172 4 0  174 4 0  176 4 0  178 4 0  180 4 0  182 4 0  184 4 0  186 4 0  188 4 0  190 4 0  192 4 0  194 4 0  196 4 0  198 4 0  200 4 0  0 6 0  2 6 0  4 6 0  6 6 0  8 6 0  10 6 0  12 6 0  14 6 0  16 6 0  18 6 0  20 6 0  22 6 0  24 6 0  26 6 0  28 6 0  30 6 0  32 6 0  34 6 0  36 6 0  38 6 0  40 6 0  42 6 0  44 6 0  46 6 0  48 6 0  50 6 0  52 6 0  54 6 0  56 6 0  58 6 0  60 6 0  62 6 0  64 6 0  66 6 0  68 6 0  70 6 0  72 6 0  74 6 0  76 6 0  78 6 0  80 6 0  82 6 0  84 6 0  86 6 0  88 6 0  90 6 0  92 6 0  94 6 0  96 6 0  98 6 0  100 6 0  102 6 0  104 6 0  106 6 0  108 6 0  110 6 0  112 6 0  114 6 0  116 6 0  118 6 0  120 6 0  122 6 0  124 6 0  126 6 0  128 6 0  130 6 0  132 6 0  134 6 0  136 6 0  138 6 0  140 6 0  142 6 0  144 6 0  146 6 0  148 6 0  150 6 0  152 6 0  154 6 0  156 6 0  158 6 0  160 6 0  162 6 0  164 6 0  166 6 0  168 6 0  170 6 0  172 6 0  174 6 0  176 6 0  178 6 0  180 6 0  182 6 0  184 6 0  186 6 0  188 6 0  190 6 0  192 6 0  194 6 0  196 6 0  198 6 0  200 6 0  0 8 0  2 8 0  4 8 0  6 8 0  8 8 0  10 8 0  12 8 0  14 8 0  16 8 0  18 8 0  20 8 0  22 8 0  24 8 0  26 8 0  28 8 0  30 8 0  32 8 0  34 8 0  36 8 0  38 8 0  40 8 0  42 8 0  44 8 0  46 8 0  48 8 0  50 8 0  52 8 0  54 8 0  56 8 0  58 8 0  60 8 0  62 8 0  64 8 0  66 8 0  68 8 0  70 8 0  72 8 0  74 8 0  76 8 0  78 8 0  80 8 0  82 8 0  84 8 0  86 8 0  88 8 0  90 8 0  92 8 0  94 8 0  96 8 0  98 8 0  100 8 0  102 8 0  104 8 0  106 8 0  108 8 0  110 8 0  112 8 0  114 8 0  116 8 0  118 8 0  120 8 0  122 8 0  124 8 0  126 8 0  128 8 0  130 8 0  132 8 0  134 8 0  136 8 0  138 8 0  140 8 0  142 8 0  144 8 0  146 8 0  148 8 0  150 8 0  152 8 0  154 8 0  156 8 0  158 8 0  160 8 0  162 8 0  164 8 0  166 8 0  168 8 0  170 8 0  172 8 0  174 8 0  176 8 0  178 8 0  180 8 0  182 8 0  184 8 0  186 8 0  188 8 0  190 8 0  192 8 0  194 8 0  196 8 0  198 8 0  200 8 0  0 10 0  2 10 0  4 10 0  6 10 0  8 10 0  10 10 0  12 10 0  14 10 0  16 10 0  18 10 0  20 10 0  22 10 0  24 10 0  26 10 0  28 10 0  30 10 0  32 10 0  34 10 0  36 10 0  38 10 0  40 10 0  42 10 0  44 10 0  46 10 0  48 10 0  50 10 0  52 10 0  54 10 0  56 10 0  58 10 0  60 10 0  62 10 0  64 10 0  66 10 0  68 10 0  70 10 0  72 10 0  74 10 0  76 10 0  78 10 0  80 10 0  82 10 0  84 10 0  86 10 0  88 10 0  90 10 0  92 10 0  94 10 0  96 10 0  98 10 0  100 10 0  102 10 0  104 10 0  106 10 0  108 10 0  110 10 0  112 10 0  114 10 0  116 10 0  118 10 0  120 10 0  122 10 0  124 10 0  126 10 0  128 10 0  130 10 0  132 10 0  134 10 0  136 10 0  138 10 0  140 10 0  142 10 0  144 10 0  146 10 0  148 10 0  150 10 0  152 10 0  154 10 0  156 10 0  158 10 0  160 10 0  162 10 0  164 10 0  166 10 0  168 10 0  170 10 0  172 10 0  174 10 0  176 10 0  178 10 0  180 10 0  182 10 0  184 10 0  186 10 0  188 10 0  190 10 0  192 10 0  194 10 0  196 10 0  198 10 0  200 10 0  0 12 0  2 12 0  4 12 0  6 12 0  8 12 0  10 12 0  12 12 0  14 12 0  16 12 0  18 12 0  20 12 0  22 12 0  24 12 0  26 12 0  28 12 0  30 12 0  32 12 0  34 12 0  36 12 0  38 12 0  40 12 0  42 12 0  44 12 0  46 12 0  48 12 0  50 12 0  52 12 0  54 12 0  56 12 0  58 12 0  60 12 0  62 12 0  64 12 0  66 12 0  68 12 0  70 12 0  72 12 0  74 12 0  76 12 0  78 12 0  80 12 0  82 12 0  84 12 0  86 12 0  88 12 0  90 12 0  92 12 0  94 12 0  96 12 0  98 12 0  100 12 0  102 12 0  104 12 0  106 12 0  108 12 0  110 12 0  112 12 0  114 12 0  116 12 0  118 12 0  120 12 0  122 12 0  124 12 0  126 12 0  128 12 0  130 12 0  132 12 0  134 12 0  136 12 0  138 12 0  140 12 0  142 12 0  144 12 0  146 12 0  148 12 0  150 12 0  152 12 0  154 12 0  156 12 0  158 12 0  160 12 0  162 12 0  164 12 0  166 12 0  168 12 0  170 12 0  172 12 0  174 12 0  176 12 0  178 12 0  180 12 0  182 12 0  184 12 0  186 12 0  188 12 0  190 12 0  192 12 0  194 12 0  196 12 0  198 12 0  200 12 0  0 14 0  2 14 0  4 14 0  6 14 0  8 14 0  10 14 0  12 14 0  14 14 0  16 14 0  18 14 0  20 14 0  22 14 0  24 14 0  26 14 0  28 14 0  30 14 0  32 14 0  34 14 0  36 14 0  38 14 0  40 14 0  42 14 0  44 14 0  46 14 0  48 14 0  50 14 0  52 14 0  54 14 0  56 14 0  58 14 0  60 14 0  62 14 0  64 14 0  66 14 0  68 14 0  70 14 0  72 14 0  74 14 0  76 14 0  78 14 0  80 14 0  82 14 0  84 14 0  86 14 0  88 14 0  90 14 0  92 14 0  94 14 0  96 14 0  98 14 0  100 14 0  102 14 0  104 14 0  106 14 0  108 14 0  110 14 0  112 14 0  114 14 0  116 14 0  118 14 0  120 14 0  122 14 0  124 14 0  126 14 0  128 14 0  130 14 0  132 14 0  134 14 0  136 14 0  138 14 0  140 14 0  142 14 0  144 14 0  146 14 0  148 14 0  150 14 0  152 14 0  154 14 0  156 14 0  158 14 0  160 14 0  162 14 0  164 14 0  166 14 0  168 14 0  170 14 0  172 14 0  174 14 0  176 14 0  178 14 0  180 14 0  182 14 0  184 14 0  186 14 0  188 14 0  190 14 0  192 14 0  194 14 0  196 14 0  198 14 0  200 14 0  0 16 0  2 16 0  4 16 0  6 16 0  8 16 0  10 16 0  12 16 0  14 16 0  16 16 0  18 16 0  20 16 0  22 16 0  24 16 0  26 16 0  28 16 0  30 16 0  32 16 0  34 16 0  36 16 0  38 16 0  40 16 0  42 16 0  44 16 0  46 16 0  48 16 0  50 16 0  52 16 0  54 16 0  56 16 0  58 16 0  60 16 0  62 16 0  64 16 0  66 16 0  68 16 0  70 16 0  72 16 0  74 16 0  76 16 0  78 16 0  80 16 0  82 16 0  84 16 0  86 16 0  88 16 0  90 16 0  92 16 0  94 16 0  96 16 0  98 16 0  100 16 0  102 16 0  104 16 0  106 16 0  108 16 0  110 16 0  112 16 0  114 16 0  116 16 0  118 16 0  120 16 0  122 16 0  124 16 0  126 16 0  128 16 0  130 16 0  132 16 0  134 16 0  136 16 0  138 16 0  140 16 0  142 16 0  144 16 0  146 16 0  148 16 0  150 16 0  152 16 0  154 16 0  156 16 0  158 16 0  160 16 0  162 16 0  164 16 0  166 16 0  168 16 0  170 16 0  172 16 0  174 16 0  176 16 0  178 16 0  180 16 0  182 16 0  184 16 0  186 16 0  188 16 0  190 16 0  192 16 0  194 16 0  196 16 0  198 16 0  200 16 0  0 18 0  2 18 0  4 18 0  6 18 0  8 18 0  10 18 0  12 18 0  14 18 0  16 18 0  18 18 0  20 18 0  22 18 0  24 18 0  26 18 0  28 18 0  30 18 0  32 18 0  34 18 0  36 18 0  38 18 0  40 18 0  42 18 0  44 18 0  46 18 0  48 18 0  50 18 0  52 18 0  54 18 0  56 18 0  58 18 0  60 18 0  62 18 0  64 18 0  66 18 0  68 18 0  70 18 0  72 18 0  74 18 0  76 18 0  78 18 0  80 18 0  82 18 0  84 18 0  86 18 0  88 18 0  90 18 0  92 18 0  94 18 0  96 18 0  98 18 0  100 18 0  102 18 0  104 18 0  106 18 0  108 18 0  110 18 0  112 18 0  114 18 0  116 18 0  118 18 0  120 18 0  122 18 0  124 18 0  126 18 0  128 18 0  130 18 0  132 18 0  134 18 0  136 18 0  138 18 0  140 18 0  142 18 0  144 18 0  146 18 0  148 18 0  150 18 0  152 18 0  154 18 0  156 18 0  158 18 0  160 18 0  162 18 0  164 18 0  166 18 0  168 18 0  170 18 0  172 18 0  174 18 0  176 18 0  178 18 0  180 18 0  182 18 0  184 18 0  186 18 0  188 18 0  190 18 0  192 18 0  194 18 0  196 18 0  198 18 0  200 18 0  0 20 0  2 20 0  4 20 0  6 20 0  8 20 0  10 20 0  12 20 0  14 20 0  16 20 0  18 20 0  20 20 0  22 20 0  24 20 0  26 20 0  28 20 0  30 20 0  32 20 0  34 20 0  36 20 0  38 20 0  40 20 0  42 20 0  44 20 0  46 20 0  48 20 0  50 20 0  52 20 0  54 20 0  56 20 0  58 20 0  60 20 0  62 20 0  64 20 0  66 20 0  68 20 0  70 20 0  72 20 0  74 20 0  76 20 0  78 20 0  80 20 0  82 20 0  84 20 0  86 20 0  88 20 0  90 20 0  92 20 0  94 20 0  96 20 0  98 20 0  100 20 0  102 20 0  104 20 0  106 20 0  108 20 0  110 20 0  112 20 0  114 20 0  116 20 0  118 20 0  120 20 0  122 20 0  124 20 0  126 20 0  128 20 0  130 20 0  132 20 0  134 20 0  136 20 0  138 20 0  140 20 0  142 20 0  144 20 0  146 20 0  148 20 0  150 20 0  152 20 0  154 20 0  156 20 0
[...]
<PointData  Scalars="f_271-0"> 
<DataArray  type="Float64"  Name="f_271-0"  format="ascii">5.7297170710680700e-01  5.7180944647992982e-01  5.6845661295156102e-01  5.6328191009383943e-01  5.5680060786901819e-01  5.4955979852330872e-01  5.4203062282554682e-01  5.3453417056067765e-01  5.2721494429407367e-01  5.2006305922612261e-01  5.1297638146411173e-01  5.0584625568297858e-01  4.9864496610792014e-01  4.9149105987680786e-01  4.8467248137923286e-01  4.7861786878652429e-01  4.7382096403957774e-01  4.7073709702361094e-01  4.6967923846181087e-01  4.7074139510188495e-01  4.7376938606116953e-01  4.7838605718642463e-01  4.8406375179560640e-01  4.9022520214105403e-01  4.9634766417902731e-01  5.0204528262548054e-01  5.0711100168257905e-01  5.1151018158556283e-01  5.1533084700117038e-01  5.1870710076994575e-01  5.2173966873470423e-01  5.2443842477148206e-01  5.2670495804149908e-01  5.2835963925646656e-01  5.2920084290394598e-01  5.2907061692306812e-01  5.2789903698365670e-01  5.2571301030654882e-01  5.2261895534939118e-01  5.1878629404196308e-01  5.1445309780839266e-01  5.0994647576807894e-01  5.0568237702400887e-01  5.0211205454171282e-01  4.9961966006907288e-01  4.9841720973130582e-01  4.9849312894364117e-01  4.9964074854916496e-01  5.0154752279895165e-01  5.0389465702298564e-01  5.0641275621957937e-01  5.0885423002124774e-01  5.1086158518184377e-01  5.1171924206461250e-01  5.0996974002840367e-01  5.0292250709780573e-01  4.8778956732953582e-01  4.9515295747104504e-01  6.5765121691488138e-01  7.8105714007785676e-01  7.9872375819766273e-01  7.8287225906684699e-01  6.7097711502205248e-01  5.9984700324270768e-01  7.4251638958835986e-01  7.7304642499751663e-01  7.7560691451960984e-01  7.7469940456320918e-01  7.7004432353021302e-01  7.2768572962128264e-01  5.4499626394910872e-01  4.5701074484308651e-01  4.7358020290477110e-01  4.9020206446604997e-01  4.9841985935191685e-01  5.0123778200898150e-01  5.0122376755051345e-01  5.0016865091641616e-01  4.9923406306082230e-01  4.9906376981878686e-01  4.9986703341071131e-01  5.0149826783849194e-01  5.0354334989682792e-01  5.0540776146861588e-01  5.0639106454778404e-01  5.0573024812073641e-01  5.0260296256467729e-01  4.9609799214511463e-01  4.8517726416765605e-01  4.6867901209563817e-01  4.4584784953195572e-01  4.2730899043145393e-01  5.1402489062589318e-01  6.9286738826093253e-01  7.1764056998242709e-01  6.9924065744875874e-01  6.7848389063109227e-01  6.6029865514662811e-01  6.4628653118065393e-01  6.3747403077216303e-01  6.3446934357391394e-01  5.7092196570052189e-01  5.6979315645852813e-01  5.6653689801661355e-01  5.6151150563119345e-01  5.5521772900565436e-01  5.4818711370350259e-01  5.4087699535450662e-01  5.3359819297120059e-01  5.2648908958806417e-01  5.1953737952287726e-01  5.1264093170729252e-01  5.0569174587829835e-01  4.9866156945194573e-01  4.9166580878725408e-01  4.8498614505436677e-01  4.7904244247187655e-01  4.7431878763632529e-01  4.7126217632277362e-01  4.7018071817443413e-01  4.7116853833666933e-01  4.7407702670377272e-01  4.7853939834733789e-01  4.8404157743042031e-01  4.9002097129951949e-01  4.9596845393055522e-01  5.0150901719993191e-01  5.0644274776136977e-01  5.1073842885677645e-01  5.1448459706581451e-01  5.1781427579034389e-01  5.2082689815900673e-01  5.2353179759150703e-01  5.2583099492963015e-01  5.2754569477484092e-01  5.2847447301271966e-01  5.2845805957169922e-01  5.2742355126784446e-01  5.2539396356903290e-01  5.2247196198685286e-01  5.1882365649380802e-01  5.1468312342796108e-01  5.1037076716011465e-01  5.0629182034011477e-01  5.0288372928822822e-01  5.0051690981121377e-01  4.9939349383867182e-01  4.9949824813362709e-01  5.0062705154752940e-01  5.0247425610560104e-01  5.0473016245792546e-01  5.0713591643553724e-01  5.0945806765382040e-01  5.1136376110088422e-01  5.1218813103749739e-01  5.1058510009322766e-01  5.0410890715206191e-01  4.9013490019240846e-01  4.8778361243497775e-01  6.1069039095111566e-01  7.5805792700769936e-01  7.8876879518653509e-01  7.6383444880987617e-01  6.2125753880179035e-01  5.6340813845309501e-01  7.2942637228246665e-01  7.7047866889444927e-01  7.7419218238777721e-01  7.7283586829355788e-01  7.6519673111916631e-01  7.0478365472307369e-01  5.1831366703550941e-01  4.5688804436520319e-01  4.7526437677987204e-01  4.9097740501395437e-01  4.9874085431885773e-01  5.0137741055950369e-01  5.0130979797434494e-01  5.0024772821099872e-01  4.9930838302178321e-01  4.9911306513461234e-01  4.9986299819078306e-01  5.0141458800617889e-01  5.0336275737539138e-01  5.0512694389566115e-01  5.0602426972895964e-01  5.0531262888699791e-01  5.0219482528911930e-01  4.9579105504705817e-01  4.8510407860472488e-01  4.6902526482016488e-01  4.4679937338118125e-01  4.2600086878668669e-01  4.8840519218446338e-01  6.7282618618683221e-01  7.1583208685004229e-01  7.0106669599895144e-01  6.8144541476163800e-01  6.6389490286992781e-01  6.5030431804327538e-01  6.4173809760727729e-01  6.3881465578231200e-01  5.6494009282156543e-01  5.6390779942005609e-01  5.6093040480479539e-01  5.5633682849233690e-01  5.5058665368310722e-01  5.4416721320443062e-01  5.3749639327459242e-01  5.3085542054699031e-01  5.2436473087886171e-01  5.1800447612491063e-01  5.1167180673233914e-01  5.0525983136157693e-01  4.9873802749478907e-01  4.9221216917325011e-01  4.8594549119820613e-01  4.8033235128310092e-01  4.7582891556607648e-01  4.7285812778048164e-01  4.7171405987493265e-01  4.7249112694524303e-01  4.7505670245799031e-01  4.7907382122081721e-01  4.8406752788951163e-01  4.8951758342213120e-01  4.9495426981221430e-01  5.0003410598830689e-01  5.0457812004843750e-01  5.0856538210478741e-01  5.1208635639216216e-01  5.1527140229156854e-01  5.1821663798378481e-01  5.2093019455635625e-01  5.2331563364477840e-01  5.2519681143456498e-01  5.2637309427591739e-01  5.2668157239516866e-01  5.2604080999609049e-01  5.2446246419457809e-01  5.2203797999181190e-01  5.1892328949111988e-01  5.1534027087787526e-01  5.1158952725106599e-01  5.0804532133401681e-01  5.0510560216209566e-01  5.0310165553014186e-01  5.0220746229938451e-01  5.0239725496336840e-01  5.0347389171595980e-01  5.0515094457825160e-01  5.0714407837768627e-01  5.0922374360764222e-01  5.1119543649296439e-01  5.1279300915672055e-01  5.1348559445276187e-01  5.1221119922163227e-01  5.0711402885179224e-01  4.9605266418377825e-01  4.8345382769844836e-01  5.1488077798763232e-01  6.3557087367871723e-01  6.9978749171006505e-01  6.4681569989667009e-01  5.0100650590414630e-01  4.8524420601156343e-01  6.6049011193865192e-01  7.5010568988759574e-01  7.6400102498233813e-01  7.6009614716807494e-01  7.3034026253439177e-01  6.0930693254435220e-01  4.7035574769286154e-01  4.6045500539014356e-01  4.7966077085288494e-01  4.9300669188006491e-01  4.9957793040048404e-01  5.0174174549883654e-01  5.0154253464976106e-01  5.0047225858589439e-01  4.9952637546764467e-01  4.9926407930642136e-01  4.9986453850455276e-01  5.0119036608476331e-01  5.0286270817425927e-01  5.0434116019319519e-01  5.0499315557303304e-01  5.0413618802275684e-01  5.0104428964231895e-01  4.9492572477470897e-01  4.8489584992217288e-01  4.6998945915363671e-01  4.4946355679047734e-01  4.2626262084644378e-01  4.3874854874502928e-01  5.8832243793355643e-01  6.9684772012211682e-01  7.0330614333571784e-01  6.8902730290151692e-01  6.7386412014498420e-01  6.6164512350540172e-01  6.5384101163700536e-01  6.5116482888581051e-01  5.5551047201081538e-01  5.5462700793874331e-01  5.5208029906523426e-01  5.4815570432338623e-01  5.4325156721561907e-01  5.3778903586866500e-01  5.3212636110239842e-01  5.2649928395012269e-01  5.2099967832420957e-01  5.1559434504632173e-01  5.1017707941640100e-01  5.0464028557144058e-01  4.9894771538621230e-01  4.9318853412135472e-01  4.8759638306335995e-01  4.8252571365847297e-01  4.7838946889746631e-01  4.7557351238072099e-01  4.7435025454462149e-01  4.7481440427391902e-01  4.7685768438856985e-01  4.8018875671322225e-01  4.8439271560699709e-01  4.8901458174612328e-01  4.9364568766849393e-01  4.9799183157062549e-01  5.0190735920240159e-01  5.0538850912674771e-01  5.0853017900615016e-01  5.1146009255560632e-01  5.1427060930462520e-01  5.1696915452630865e-01  5.1946258967514081e-01  5.2157959981794855e-01  5.2312137955993865e-01  5.2391986859042716e-01  5.2388063123486406e-01  5.2299738786453576e-01  5.2134305906552769e-01  5.1905595562522011e-01  5.1633706791576872e-01  5.1345505760459220e-01  5.1073630023177785e-01  5.0851894481550286e-01  5.0707557944657944e-01  5.0653800326006493e-01  5.0686432205430831e-01  5.0786698139710784e-01  5.0928699406637057e-01  5.1087633403960020e-01  5.1244726762769721e-01  5.1386012573660078e-01  5.1493990889095453e-01  5.1533065331456296e-01  5.1431749215188860e-01  5.1069970973196610e-01  5.0302118140398477e-01  4.9134706023288505e-01  4.8240074254308218e-01  4.9336301612378763e-01  5.0834334181013618e-01  4.8388143386731886e-01  4.4820133808751550e-01  4.4283781047303827e-01  5.1136789410313088e-01  6.3151080910407587e-01  6.8312095179792620e-01  6.6819043907789732e-01  5.8584413765030985e-01  4.8065123817148425e-01  4.5395991707965333e-01  4.6905982357285381e-01  4.8529142737642667e-01  4.9557451101708377e-01  5.0062315786841727e-01  5.0219750475237024e-01  5.0186083794542202e-01  5.0081224172576211e-01  4.9987741551563264e-01  4.9952744592625248e-01  4.9991078803511008e-01  5.0090095878988583e-01  5.0215985576518063e-01  5.0320860086183072e-01  5.0349107473250454e-01  5.0241450545732746e-01  4.9935884742960307e-01  4.9366098543369286e-01  4.8459599692005273e-01  4.7139338780850693e-01  4.5339986631954649e-01  4.3125246770491299e-01  4.1441565841778244e-01  4.5588195998194198e-01  5.9351365181765836e-01  6.7605300027133763e-01  6.9042029174646247e-01  6.8482492691133112e-01  6.7664817418198464e-01  6.7071373967882353e-01  6.6860468215005875e-01  5.4338512298561459e-01  5.4268716369803238e-01  5.4067851581987114e-01  5.3759352352202983e-01  5.3375838223732019e-01  5.2951550444326922e-01  5.2515110673523058e-01  5.2084456196777518e-01  5.1665050237448906e-01  5.1251584906592340e-01  5.0832597092845744e-01  5.0396784021695373e-01  4.9939389198996320e-01  4.9466931363552247e-01  4.8998874551043498e-01  4.8565588555843670e-01  4.8202957257499290e-01  4.7944956695623253e-01  4.7816133287288581e-01  4.7825968534752072e-01  4.7966607892236990e-01  4.8214521934477722e-01  4.8535629102327943e-01  4.8892528546582165e-01  4.9251991517802929e-01  4.9590849475853410e-01  4.9898880204853591e-01  5.0178104035672277e-01  5.0438859078884191e-01  5.0693891032644556e-01  5.0952243850910817e-01  5.1214801541368138e-01  5.1472837619586576e-01  5.1709953517746088e-01  5.1906596107987990e-01  5.2045387290173162e-01  5.2115278877742888e-01  5.2113320604722835e-01  5.2044266344475743e-01  5.1919395336271457e-01  5.1755822142096120e-01  5.1576177086821351e-01  5.1407115090727218e-01  5.1275219491281276e-01  5.1200759984161437e-01  5.1191907617535304e-01  5.1242492811007989e-01  5.1334724164920131e-01  5.1445684374999867e-01  5.1554545938517948e-01  5.1647131109193178e-01  5.1715465740237676e-01  5.1751689218798236e-01  5.1737606248055990e-01  5.1633355500327405e-01  5.1372000171229415e-01  5.0873230213140641e-01  5.0095554811685439e-01  4.9129190603072848e-01  4.8183566401324474e-01  4.7393064709194149e-01  4.6637301242744589e-01  4.5790793296437521e-01  4.4909934076689739e-01  4.4716320032423301e-01  4.6567041992012370e-01  4.8640206285304494e-01  4.7876807066350596e-01  4.5588713634941397e-01  4.5092721981563272e-01  4.6354200073626162e-01  4.7878114283123230e-01  4.9059699544626795e-01  4.9792936711924901e-01  5.0154714882990914e-01  5.0260565401423285e-01  5.0220459584166832e-01  5.0124065269080686e-01  5.0035589790872237e-01  4.9992414855023848e-01  5.0006115838426068e-01  5.0065627806169077e-01  5.0142258962219188e-01  5.0195696130915135e-01  5.0179631204377595e-01  5.0045577410392683e-01  4.9744068088571619e-01  4.9223674232558884e-01  4.8429732699476158e-01  4.7305846692860087e-01  4.5803212863055059e-01  4.3914943464681128e-01  4.1831113232576789e-01  4.0488667750305568e-01  4.3245824690366214e-01  5.2242751936708842e-01  6.0938492827257174e-01  6.5046475181678653e-01  6.6532557412375204e-01  6.7021164609574813e-01  6.7129836976364166e-01  5.2951174828546699e-01  5.2901807192498551e-01  5.2760376375457918e-01  5.2545179249806606e-01  5.2281507978758579e-01  5.1995495672322511e-01  5.1708182349857956e-01  5.1431355282146396e-01  5.1166135053969986e-01  5.0904538174383340e-01  5.0633533845543854e-01  5.0340536844644446e-01  5.0018920991524829e-01  4.9672082260392153e-01  4.9314887007025615e-01  4.8971983119230150e-01  4.8673284963898000e-01  4.8447732968430074e-01  4.8316934272329881e-01  4.8290351947386362e-01  4.8363303937845298e-01  4.8518278778458290e-01  4.8729192763062590e-01  4.8967449934776192e-01  4.9208223419466096e-01  4.9435358224482795e-01  4.9643691429450248e-01  4.9838285341161365e-01  5.0030894920260494e-01  5.0234736893228826e-01  5.0459100345828034e-01  5.0705393109502539e-01  5.0965798991467104e-01  5.1224898631345228e-01  5.1463607630477171e-01  5.1663976735238171e-01  5.1813177129746091e-01  5.1905555613607846e-01  5.1942740185188696e-01  5.1932705906154797e-01  5.1888761184919296e-01  5.1828536674359005e-01  5.1772108713874043e-01  5.1738445308806935e-01  5.1740618379856174e-01  5.1781661138472868e-01  5.1853263629586577e-01  5.1938326220094733e-01  5.2016517202793033e-01  5.2070534251795075e-01  5.2090387322407472e-01  5.2073700412017410e-01  5.2021449208149662e-01  5.1930355748990398e-01  5.1785073305424623e-01  5.1555110717113339e-01  5.1202524791199189e-01  5.0704170291259532e-01  5.0079768679960224e-01  4.9399450826905561e-01  4.8738701887442104e-01  4.8102885767200609e-01  4.7408545123491158e-01  4.6588845942150575e-01  4.5725556708494763e-01  4.5039091385114954e-01  4.4736174422969571e-01  4.4838391861304688e-01  4.5417701042323771e-01  4.6430564866415186e-01  4.7602120507027790e-01  4.8660389490188660e-01  4.9455084027778529e-01  4.9959697531929559e-01  5.0215108353034088e-01  5.0289661447179956e-01  5.0255471207905988e-01  5.0175605217724917e-01  5.0097296854565410e-01  5.0048771525698521e-01  5.0038726048510096e-01  5.0058124392574699e-01  5.0083930388324460e-01  5.0083994055699377e-01  5.0021896654844100e-01  4.9860474985762754e-01  4.9563213453210192e-01  4.9093708900649824e-01  4.8414661332326919e-01  4.7488790057069402e-01  4.6284405710754645e-01  4.4789393469754663e-01  4.3041718720413580e-01  4.1214376442747935e-01  3.9773985318665223e-01  3.9855876196334467e-01  4.2440332301072059e-01  4.6696750608215537e-01  5.1035120759582997e-01  5.4100667792238299e-01  5.5171871764373170e-01  5.1495002629042086e-01  5.1466175775904277e-01  5.1384735768808343e-01  5.1264425161665284e-01  5.1123962640436282e-01  5.0982062249594484e-01  5.0852608414002221e-01  5.0741289933835865e-01  5.0644547699745601e-01  5.0551064267602575e-01  5.0445383271651056e-01  5.0312725938549618e-01  5.0143771960058980e-01  4.9938161179907975e-01  4.9705768550207236e-01  4.9465353475916540e-01  4.9240859086920807e-01  4.9056264139147643e-01  4.8930296838686649e-01  4.8872382943963300e-01  4.8880888643145648e-01  4.8944109599744307e-01  4.9043720476214075e-01  4.9159743587907057e-01  4.9275703533604154e-01  4.9382607191703454e-01  4.9480721611957729e-01  4.9578720073274007e-01  4.9690473314197497e-01  4.9830400844377176e-01  5.0008700637572567e-01  5.0227823146212891e-01  5.0481203696287968e-01  5.0754581066933924e-01  5.1029400706288908e-01  5.1287123300579296e-01  5.1513037423898411e-01  5.1698553835333139e-01  5.1841761780097295e-01  5.1946765733529598e-01  5.2022495762827425e-01  5.2081230072230777e-01  5.2136504504918502e-01  5.2200089366057179e-01  5.2278438602553512e-01  5.2369869517492229e-01  5.2463929253539299e-01  5.2543686996008798e-01  5.2590460884252133e-01  5.2589377938959281e-01  5.2533627663336713e-01  5.2425524851341698e-01  5.2273583450697747e-01  5.2086492365637427e-01  5.1866612523005950e-01  5.1606639782564490e-01  5.1292628445456645e-01  5.0913724349456235e-01  5.0473383445976128e-01  4.9991175749449418e-01  4.9487716487492600e-01  4.8963449366124834e-01  4.8398509384001209e-01  4.7785658284232901e-01  4.7172509619516007e-01  4.6674637741031416e-01  4.6435589453455367e-01  4.6553860949789128e-01  4.7016543412281703e-01  4.7706648911829125e-01  4.8465107168526705e-01  4.9153956073664501e-01  4.9690838116540731e-01  5.0049430923645877e-01  5.0244019817775587e-01  5.0311297154870971e-01  5.0295797196606340e-01  5.0239715096391480e-01  5.0176346823200635e-01  5.0126334284403407e-01  5.0096274000280716e-01  5.0079471138322285e-01  5.0058542709718656e-01  5.0009259919909144e-01  4.9904657646095646e-01  4.9718282329270641e-01  4.9425729961622072e-01  4.9004407293558488e-01  4.8432504158296646e-01  4.7689001603400277e-01  4.6756654653310314e-01  4.5629078592713046e-01  4.4322082087956127e-01  4.2887526884107002e-01  4.1432485975273708e-01  4.0120639503190358e-01  3.9167230252069313e-01  3.8787145480007507e-01  3.8985233730572461e-01  3.9437273505959319e-01  3.9664896798775240e-01  5.0078495830416103e-01  5.0068770342764901e-01  5.0043383733426483e-01  5.0012557055687168e-01  4.9989832493402586e-01  4.9987902395710321e-01  5.0014567347040284e-01  5.0069956553360195e-01  5.0145780165105425e-01  5.0226828976596605e-01  5.0294344133580904e-01  5.0330398985773273e-01  5.0322184755078769e-01  5.0265126830399454e-01  5.0164059123762872e-01  5.0032166534098976e-01  4.9887953252013045e-01  4.9750984615798016e-01  4.9637470073820822e-01  4.9556817315611762e-01  4.9510055552481758e-01  4.9490539341306078e-01  4.9486727236100192e-01  4.9486258491554563e-01  4.9480194537093247e-01  4.9466250947288642e-01  4.9450124640378512e-01  4.9444537251989612e-01  4.9466231506197145e-01  4.9531716316950525e-01  4.9652912556458162e-01  4.9833898156543488e-01  5.0069651625024569e-01  5.0347108157841247e-01  5.0648139197185982e-01  5.0953486069627441e-01  5.1246455330785334e-01  5.1515423943206162e-01  5.1754785146282423e-01  5.1964561431520029e-01  5.2149177739485997e-01  5.2315742415405575e-01  5.2471895710986938e-01  5.2623243351958948e-01  5.2770720943965077e-01  5.2908669132587482e-01  5.3024547778275388e-01  5.3100895860967301e-01  5.3119432143055811e-01  5.3066291411034328e-01  5.2936599324732792e-01  5.2736368405165379e-01  5.2480486460334530e-01  5.2187288399420595e-01  5.1872027580779656e-01  5.1542382255768904e-01  5.1198291272866292e-01  5.0836054245901341e-01  5.0453721496999437e-01  5.0053376942539507e-01  4.9638422800912091e-01  4.9209955364053687e-01  4.8769730048659216e-01  4.8332090738581290e-01  4.7936761211858675e-01  4.7648778369718836e-01  4.7537980137252556e-01  4.7645432948216399e-01  4.7958835979356801e-01  4.8414713975204499e-01  4.8924646572723407e-01  4.9406178420020397e-01  4.9802452878295816e-01  5.0087387392924887e-01  5.0260998514189426e-01  5.0340762128325767e-01  5.0352766767920509e-01  5.0324320922679733e-01  5.0278447463471243e-01  5.0230266817966041e-01  5.0185214365969033e-01  5.0139051407636648e-01  5.0079541919399073e-01  4.9989417715767565e-01  4.9849898783354069e-01  4.9643765468138656e-01  4.9357054369145270e-01  4.8979017420104337e-01  4.8500900568196270e-01  4.7914922181544833e-01  4.7215038444505036e-01  4.6400402640742161e-01  4.5481004941059827e-01  4.4483575611550796e-01  4.3454303992780002e-01  4.2455950374670332e-01  4.1557843510038367e-01  4.0821117431025955e-01  4.0288020658243862e-01  3.9974329184278717e-01  3.9872486126989143e-01  4.8804281571546176e-01  4.8810993843365974e-01  4.8834138995737342e-01  4.8881700828574332e-01  4.8963817063399201e-01  4.9088994513230144e-01  4.9260455398771430e-01  4.9473676050797394e-01  4.9715850968019887e-01  4.9967485409064910e-01  5.0205737577642118e-01  5.0408665431299549e-01  5.0559316932602305e-01  5.0648683307996534e-01  5.0676859441240507e-01  5.0652208752705652e-01  5.0588794077587207e-01  5.0502724631936768e-01  5.0408320451376765e-01  5.0315055331347402e-01  5.0226067437268973e-01  5.01386322123