<?xml version="1.0"?>
<VTKFile type="UnstructuredGrid"  version="0.1"  >
<UnstructuredGrid>
<Piece  NumberOfPoints="20201" NumberOfCells="40000">
<Points>
<DataArray  type="Float64"  NumberOfComponents="3"  format="ascii">0 0 0  2 0 0  4 0 0  6 0 0  8 0 0  10 0 0  12 0 0  14 0 0  16 0 0  18 0 0  20 0 0  22 0 0  24 0 0  26 0 0  28 0 0  30 0 0  32 0 0  34 0 0  36 0 0  38 0 0  40 0 0  42 0 0  44 0 0  46 0 0  48 0 0  50 0 0  52 0 0  54 0 0  56 0 0  58 0 0  60 0 0  62 0 0  64 0 0  66 0 0  68 0 0  70 0 0  72 0 0  74 0 0  76 0 0  78 0 0  80 0 0  82 0 0  84 0 0  86 0 0  88 0 0  90 0 0  92 0 0  94 0 0  96 0 0  98 0 0  100 0 0  102 0 0  104 0 0  106 0 0  108 0 0  110 0 0  112 0 0  114 0 0  116 0 0  118 0 0  120 0 0  122 0 0  124 0 0  126 0 0  128 0 0  130 0 0  132 0 0  134 0 0  136 0 0  138 0 0  140 0 0  142 0 0  144 0 0  146 0 0  148 0 0  150 0 0  152 0 0  154 0 0  156 0 0  158 0 0  160 0 0  162 0 0  164 0 0  166 0 0  168 0 0  170 0 0  172 0 0  174 0 0  176 0 0  178 0 0  180 0 0  182 0 0  184 0 0  186 0 0  188 0 0  190 0 0  192 0 0  194 0 0  196 0 0  198 0 0  200 0 0  0 2 0  2 2 0  4 2 0  6 2 0  8 2 0  10 2 0  12 2 0  14 2 0  16 2 0  18 2 0  20 2 0  22 2 0  24 2 0  26 2 0  28 2 0  30 2 0  32 2 0  34 2 0  36 2 0  38 2 0  40 2 0  42 2 0  44 2 0  46 2 0  48 2 0  50 2 0  52 2 0  54 2 0  56 2 0  58 2 0  60 2 0  62 2 0  64 2 0  66 2 0  68 2 0  70 2 0  72 2 0  74 2 0  76 2 0  78 2 0  80 2 0  82 2 0  84 2 0  86 2 0  88 2 0  90 2 0  92 2 0  94 2 0  96 2 0  98 2 0  100 2 0  102 2 0  104 2 0  106 2 0  108 2 0  110 2 0  112 2 0  114 2 0  116 2 0  118 2 0  120 2 0  122 2 0  124 2 0  126 2 0  128 2 0  130 2 0  132 2 0  134 2 0  136 2 0  138 2 0  140 2 0  142 2 0  144 2 0  146 2 0  148 2 0  150 2 0  152 2 0  154 2 0  156 2 0  158 2 0  160 2 0  162 2 0  164 2 0  166 2 0  168 2 0  170 2 0  172 2 0  174 2 0  176 2 0  178 2 0  180 2 0  182 2 0  184 2 0  186 2 0  188 2 0  190 2 0  192 2 0  194 2 0  196 2 0  198 2 0  200 2 0  0 4 0  2 4 0  4 4 0  6 4 0  8 4 0  10 4 0  12 4 0  14 4 0  16 4 0  18 4 0  20 4 0  22 4 0  24 4 0  26 4 0  28 4 0  30 4 0  32 4 0  34 4 0  36 4 0  38 4 0  40 4 0  42 4 0  44 4 0  46 4 0  48 4 0  50 4 0  52 4 0  54 4 0  56 4 0  58 4 0  60 4 0  62 4 0  64 4 0  66 4 0  68 4 0  70 4 0  72 4 0  74 4 0  76 4 0  78 4 0  80 4 0  82 4 0  84 4 0  86 4 0  88 4 0  90 4 0  92 4 0  94 4 0  96 4 0  98 4 0  100 4 0  102 4 0  104 4 0  106 4 0  108 4 0  110 4 0  112 4 0  114 4 0  116 4 0  118 4 0  120 4 0  122 4 0  124 4 0  126 4 0  128 4 0  130 4 0  132 4 0  134 4 0  136 4 0  138 4 0  140 4 0  142 4 0  144 4 0  146 4 0  148 4 0  150 4 0  152 4 0  154 4 0  156 4 0  158 4 0  160 4 0  162 4 0  164 4 0  166 4 0  168 4 0  170 4 0  172 4 0  174 4 0  176 4 0  178 4 0  180 4 0  182 4 0  184 4 0  186 4 0  188 4 0  190 4 0  192 4 0  194 4 0  196 4 0  198 4 0  200 4 0  0 6 0  2 6 0  4 6 0  6 6 0  8 6 0  10 6 0  12 6 0  14 6 0  16 6 0  18 6 0  20 6 0  22 6 0  24 6 0  26 6 0  28 6 0  30 6 0  32 6 0  34 6 0  36 6 0  38 6 0  40 6 0  42 6 0  44 6 0  46 6 0  48 6 0  50 6 0  52 6 0  54 6 0  56 6 0  58 6 0  60 6 0  62 6 0  64 6 0  66 6 0  68 6 0  70 6 0  72 6 0  74 6 0  76 6 0  78 6 0  80 6 0  82 6 0  84 6 0  86 6 0  88 6 0  90 6 0  92 6 0  94 6 0  96 6 0  98 6 0  100 6 0  102 6 0  104 6 0  106 6 0  108 6 0  110 6 0  112 6 0  114 6 0  116 6 0  118 6 0  120 6 0  122 6 0  124 6 0  126 6 0  128 6 0  130 6 0  132 6 0  134 6 0  136 6 0  138 6 0  140 6 0  142 6 0  144 6 0  146 6 0  148 6 0  150 6 0  152 6 0  154 6 0  156 6 0  158 6 0  160 6 0  162 6 0  164 6 0  166 6 0  168 6 0  170 6 0  172 6 0  174 6 0  176 6 0  178 6 0  180 6 0  182 6 0  184 6 0  186 6 0  188 6 0  190 6 0  192 6 0  194 6 0  196 6 0  198 6 0  200 6 0  0 8 0  2 8 0  4 8 0  6 8 0  8 8 0  10 8 0  12 8 0  14 8 0  16 8 0  18 8 0  20 8 0  22 8 0  24 8 0  26 8 0  28 8 0  30 8 0  32 8 0  34 8 0  36 8 0  38 8 0  40 8 0  42 8 0  44 8 0  46 8 0  48 8 0  50 8 0  52 8 0  54 8 0  56 8 0  58 8 0  60 8 0  62 8 0  64 8 0  66 8 0  68 8 0  70 8 0  72 8 0  74 8 0  76 8 0  78 8 0  80 8 0  82 8 0  84 8 0  86 8 0  88 8 0  90 8 0  92 8 0  94 8 0  96 8 0  98 8 0  100 8 0  102 8 0  104 8 0  106 8 0  108 8 0  110 8 0  112 8 0  114 8 0  116 8 0  118 8 0  120 8 0  122 8 0  124 8 0  126 8 0  128 8 0  130 8 0  132 8 0  134 8 0  136 8 0  138 8 0  140 8 0  142 8 0  144 8 0  146 8 0  148 8 0  150 8 0  152 8 0  154 8 0  156 8 0  158 8 0  160 8 0  162 8 0  164 8 0  166 8 0  168 8 0  170 8 0  172 8 0  174 8 0  176 8 0  178 8 0  180 8 0  182 8 0  184 8 0  186 8 0  188 8 0  190 8 0  192 8 0  194 8 0  196 8 0  198 8 0  200 8 0  0 10 0  2 10 0  4 10 0  6 10 0  8 10 0  10 10 0  12 10 0  14 10 0  16 10 0  18 10 0  20 10 0  22 10 0  24 10 0  26 10 0  28 10 0  30 10 0  32 10 0  34 10 0  36 10 0  38 10 0  40 10 0  42 10 0  44 10 0  46 10 0  48 10 0  50 10 0  52 10 0  54 10 0  56 10 0  58 10 0  60 10 0  62 10 0  64 10 0  66 10 0  68 10 0  70 10 0  72 10 0  74 10 0  76 10 0  78 10 0  80 10 0  82 10 0  84 10 0  86 10 0  88 10 0  90 10 0  92 10 0  94 10 0  96 10 0  98 10 0  100 10 0  102 10 0  104 10 0  106 10 0  108 10 0  110 10 0  112 10 0  114 10 0  116 10 0  118 10 0  120 10 0  122 10 0  124 10 0  126 10 0  128 10 0  130 10 0  132 10 0  134 10 0  136 10 0  138 10 0  140 10 0  142 10 0  144 10 0  146 10 0  148 10 0  150 10 0  152 10 0  154 10 0  156 10 0  158 10 0  160 10 0  162 10 0  164 10 0  166 10 0  168 10 0  170 10 0  172 10 0  174 10 0  176 10 0  178 10 0  180 10 0  182 10 0  184 10 0  186 10 0  188 10 0  190 10 0  192 10 0  194 10 0  196 10 0  198 10 0  200 10 0  0 12 0  2 12 0  4 12 0  6 12 0  8 12 0  10 12 0  12 12 0  14 12 0  16 12 0  18 12 0  20 12 0  22 12 0  24 12 0  26 12 0  28 12 0  30 12 0  32 12 0  34 12 0  36 12 0  38 12 0  40 12 0  42 12 0  44 12 0  46 12 0  48 12 0  50 12 0  52 12 0  54 12 0  56 12 0  58 12 0  60 12 0  62 12 0  64 12 0  66 12 0  68 12 0  70 12 0  72 12 0  74 12 0  76 12 0  78 12 0  80 12 0  82 12 0  84 12 0  86 12 0  88 12 0  90 12 0  92 12 0  94 12 0  96 12 0  98 12 0  100 12 0  102 12 0  104 12 0  106 12 0  108 12 0  110 12 0  112 12 0  114 12 0  116 12 0  118 12 0  120 12 0  122 12 0  124 12 0  126 12 0  128 12 0  130 12 0  132 12 0  134 12 0  136 12 0  138 12 0  140 12 0  142 12 0  144 12 0  146 12 0  148 12 0  150 12 0  152 12 0  154 12 0  156 12 0  158 12 0  160 12 0  162 12 0  164 12 0  166 12 0  168 12 0  170 12 0  172 12 0  174 12 0  176 12 0  178 12 0  180 12 0  182 12 0  184 12 0  186 12 0  188 12 0  190 12 0  192 12 0  194 12 0  196 12 0  198 12 0  200 12 0  0 14 0  2 14 0  4 14 0  6 14 0  8 14 0  10 14 0  12 14 0  14 14 0  16 14 0  18 14 0  20 14 0  22 14 0  24 14 0  26 14 0  28 14 0  30 14 0  32 14 0  34 14 0  36 14 0  38 14 0  40 14 0  42 14 0  44 14 0  46 14 0  48 14 0  50 14 0  52 14 0  54 14 0  56 14 0  58 14 0  60 14 0  62 14 0  64 14 0  66 14 0  68 14 0  70 14 0  72 14 0  74 14 0  76 14 0  78 14 0  80 14 0  82 14 0  84 14 0  86 14 0  88 14 0  90 14 0  92 14 0  94 14 0  96 14 0  98 14 0  100 14 0  102 14 0  104 14 0  106 14 0  108 14 0  110 14 0  112 14 0  114 14 0  116 14 0  118 14 0  120 14 0  122 14 0  124 14 0  126 14 0  128 14 0  130 14 0  132 14 0  134 14 0  136 14 0  138 14 0  140 14 0  142 14 0  144 14 0  146 14 0  148 14 0  150 14 0  152 14 0  154 14 0  156 14 0  158 14 0  160 14 0  162 14 0  164 14 0  166 14 0  168 14 0  170 14 0  172 14 0  174 14 0  176 14 0  178 14 0  180 14 0  182 14 0  184 14 0  186 14 0  188 14 0  190 14 0  192 14 0  194 14 0  196 14 0  198 14 0  200 14 0  0 16 0  2 16 0  4 16 0  6 16 0  8 16 0  10 16 0  12 16 0  14 16 0  16 16 0  18 16 0  20 16 0  22 16 0  24 16 0  26 16 0  28 16 0  30 16 0  32 16 0  34 16 0  36 16 0  38 16 0  40 16 0  42 16 0  44 16 0  46 16 0  48 16 0  50 16 0  52 16 0  54 16 0  56 16 0  58 16 0  60 16 0  62 16 0  64 16 0  66 16 0  68 16 0  70 16 0  72 16 0  74 16 0  76 16 0  78 16 0  80 16 0  82 16 0  84 16 0  86 16 0  88 16 0  90 16 0  92 16 0  94 16 0  96 16 0  98 16 0  100 16 0  102 16 0  104 16 0  106 16 0  108 16 0  110 16 0  112 16 0  114 16 0  116 16 0  118 16 0  120 16 0  122 16 0  124 16 0  126 16 0  128 16 0  130 16 0  132 16 0  134 16 0  136 16 0  138 16 0  140 16 0  142 16 0  144 16 0  146 16 0  148 16 0  150 16 0  152 16 0  154 16 0  156 16 0  158 16 0  160 16 0  162 16 0  164 16 0  166 16 0  168 16 0  170 16 0  172 16 0  174 16 0  176 16 0  178 16 0  180 16 0  182 16 0  184 16 0  186 16 0  188 16 0  190 16 0  192 16 0  194 16 0  196 16 0  198 16 0  200 16 0  0 18 0  2 18 0  4 18 0  6 18 0  8 18 0  10 18 0  12 18 0  14 18 0  16 18 0  18 18 0  20 18 0  22 18 0  24 18 0  26 18 0  28 18 0  30 18 0  32 18 0  34 18 0  36 18 0  38 18 0  40 18 0  42 18 0  44 18 0  46 18 0  48 18 0  50 18 0  52 18 0  54 18 0  56 18 0  58 18 0  60 18 0  62 18 0  64 18 0  66 18 0  68 18 0  70 18 0  72 18 0  74 18 0  76 18 0  78 18 0  80 18 0  82 18 0  84 18 0  86 18 0  88 18 0  90 18 0  92 18 0  94 18 0  96 18 0  98 18 0  100 18 0  102 18 0  104 18 0  106 18 0  108 18 0  110 18 0  112 18 0  114 18 0  116 18 0  118 18 0  120 18 0  122 18 0  124 18 0  126 18 0  128 18 0  130 18 0  132 18 0  134 18 0  136 18 0  138 18 0  140 18 0  142 18 0  144 18 0  146 18 0  148 18 0  150 18 0  152 18 0  154 18 0  156 18 0  158 18 0  160 18 0  162 18 0  164 18 0  166 18 0  168 18 0  170 18 0  172 18 0  174 18 0  176 18 0  178 18 0  180 18 0  182 18 0  184 18 0  186 18 0  188 18 0  190 18 0  192 18 0  194 18 0  196 18 0  198 18 0  200 18 0  0 20 0  2 20 0  4 20 0  6 20 0  8 20 0  10 20 0  12 20 0  14 20 0  16 20 0  18 20 0  20 20 0  22 20 0  24 20 0  26 20 0  28 20 0  30 20 0  32 20 0  34 20 0  36 20 0  38 20 0  40 20 0  42 20 0  44 20 0  46 20 0  48 20 0  50 20 0  52 20 0  54 20 0  56 20 0  58 20 0  60 20 0  62 20 0  64 20 0  66 20 0  68 20 0  70 20 0  72 20 0  74 20 0  76 20 0  78 20 0  80 20 0  82 20 0  84 20 0  86 20 0  88 20 0  90 20 0  92 20 0  94 20 0  96 20 0  98 20 0  100 20 0  102 20 0  104 20 0  106 20 0  108 20 0  110 20 0  112 20 0  114 20 0  116 20 0  118 20 0  120 20 0  122 20 0  124 20 0  126 20 0  128 20 0  130 20 0  132 20 0  134 20 0  136 20 0  138 20 0  140 20 0  142 20 0  144 20 0  146 20 0  148 20 0  150 20 0  152 20 0  154 20 0  156 20 0
[...]
<PointData  Scalars="f_271-0"> 
<DataArray  type="Float64"  Name="f_271-0"  format="ascii">5.8366721322220372e-01  5.8215537144956020e-01  5.7782757898567993e-01  5.7124890424839059e-01  5.6319074891115184e-01  5.5444354460973044e-01  5.4565287659822370e-01  5.3721747214418258e-01  5.2926079126344028e-01  5.2167045742307527e-01  5.1419209378880559e-01  5.0655827651590846e-01  4.9862441513621936e-01  4.9047548823293707e-01  4.8246925133198554e-01  4.7519710562072404e-01  4.6936891764723226e-01  4.6565252498105808e-01  4.6451279840419762e-01  4.6609451564606197e-01  4.7017953441895688e-01  4.7622747867451043e-01  4.8348719411220176e-01  4.9114927314460638e-01  4.9850141043584384e-01  5.0504930694132455e-01  5.1057546688292343e-01  5.1512420806586234e-01  5.1892004592208885e-01  5.2224414376712402e-01  5.2530559317229308e-01  5.2814743910790218e-01  5.3061923499531483e-01  5.3242776885403864e-01  5.3324802359051249e-01  5.3284649043956278e-01  5.3115586030269057e-01  5.2826245813993755e-01  5.2432633394261052e-01  5.1951281535174054e-01  5.1401396467294613e-01  5.0815460276599878e-01  5.0247472728253950e-01  4.9766911272392900e-01  4.9437671615797985e-01  4.9294428571561361e-01  4.9331434579709610e-01  4.9509573460387907e-01  4.9775873500895856e-01  5.0084222747980134e-01  5.0407764621580653e-01  5.0738325934075967e-01  5.1072222302119530e-01  5.1383177476514319e-01  5.1581854057153687e-01  5.1459750870906817e-01  5.0651071827930905e-01  4.9480172835328290e-01  5.7016919547384626e-01  7.5936001886860649e-01  8.0955249518899308e-01  7.9365617926225984e-01  6.6786405736368204e-01  5.6909600833963903e-01  7.3398992345191949e-01  7.7680852612753648e-01  7.8010495620377529e-01  7.7893605148458112e-01  7.6936138995701853e-01  6.8644022142491978e-01  4.9734306790677069e-01  4.6922705167490614e-01  4.8995626245991297e-01  5.0190189942129515e-01  5.0573615781379877e-01  5.0500982675080386e-01  5.0231840879932133e-01  4.9943936356377266e-01  4.9751093603866153e-01  4.9712559948301660e-01  4.9839312418138343e-01  5.0101681201183945e-01  5.0439955744140275e-01  5.0776894858278243e-01  5.1029030147242249e-01  5.1113008384170655e-01  5.0944444745432815e-01  5.0429841103093032e-01  4.9456124186275968e-01  4.7886371372322084e-01  4.5598825660562065e-01  4.3243972736516839e-01  4.9242890145571178e-01  6.7704114963367423e-01  7.1091991148263078e-01  6.8880898398225687e-01  6.6322328409385045e-01  6.4097411003044935e-01  6.2401361630005392e-01  6.1344430936030270e-01  6.0985925097110982e-01  5.8122349850336841e-01  5.7975873989136406e-01  5.7556539035207654e-01  5.6919017444222464e-01  5.6137984114872808e-01  5.5289993665708648e-01  5.4437570293769932e-01  5.3619257258305764e-01  5.2846816444762013e-01  5.2109059380442069e-01  5.1381008240420090e-01  5.0636486729426711e-01  4.9861373092326039e-01  4.9063997618852273e-01  4.8279345247349620e-01  4.7565238614517896e-01  4.6991110798284119e-01  4.6622351642293025e-01  4.6504593453074389e-01  4.6652254041978297e-01  4.7044323890968825e-01  4.7628312668705719e-01  4.8331122464281484e-01  4.9073949737463474e-01  4.9787474503044543e-01  5.0423683720246715e-01  5.0961616951914057e-01  5.1405887930576022e-01  5.1778682419641497e-01  5.2107650510262760e-01  5.2413292845187864e-01  5.2699746796056623e-01  5.2952081375405602e-01  5.3141240919523114e-01  5.3234894194031390e-01  5.3209533003137877e-01  5.3057890675005404e-01  5.2787906018377539e-01  5.2415106975862602e-01  5.1955970916351157e-01  5.1429810157452449e-01  5.0868719363125947e-01  5.0325273264401560e-01  4.9866588227024333e-01  4.9554047598853396e-01  4.9420613196814001e-01  4.9460139610321774e-01  4.9634294899164266e-01  4.9891515588792634e-01  5.0187131080787983e-01  5.0495438165750006e-01  5.0809223997031661e-01  5.1126173483339810e-01  5.1423138646806654e-01  5.1618532652797622e-01  5.1522592718373794e-01  5.0809134599440853e-01  4.9584120759313416e-01  5.3861336288225414e-01  7.1166588766818262e-01  7.8709304772499766e-01  7.6354621263695688e-01  6.1075086804666701e-01  5.3339224472787450e-01  7.1323883255387210e-01  7.7267891706499470e-01  7.7827876990388067e-01  7.7621013935518413e-01  7.5903540668052816e-01  6.4822827190281640e-01  4.8266445440553685e-01  4.7124374723415963e-01  4.9121344111255694e-01  5.0233902854972945e-01  5.0585626355597890e-01  5.0505564415341164e-01  5.0238652993290167e-01  4.9954789460789478e-01  4.9763583443063081e-01  4.9722280305961392e-01  4.9841384826527330e-01  5.0091871322027282e-01  5.0415455913227081e-01  5.0736814881763781e-01  5.0974685986577739e-01  5.1048174377642652e-01  5.0875783569952160e-01  5.0367702710992535e-01  4.9415813495622268e-01  4.7889766946060747e-01  4.5672054345926061e-01  4.3215079358720521e-01  4.7052122286535353e-01  6.5156734170828212e-01  7.0838852209473802e-01  6.9139485802485667e-01  6.6728390323244202e-01  6.4577211649808786e-01  6.2927876117930881e-01  6.1897618988996150e-01  6.1547829920448094e-01  5.7410420063568068e-01  5.7277418727718155e-01  5.6896603172715476e-01  5.6317506956038299e-01  5.5607879379754654e-01  5.4837253581818868e-01  5.4062376415685498e-01  5.3317972708453620e-01  5.2614071139289909e-01  5.1939527348508985e-01  5.1270560395833731e-01  5.0582487192474024e-01  4.9862034137768996e-01  4.9116959833084611e-01  4.8379926337898227e-01  4.7704953718579490e-01  4.7157014049992135e-01  4.6797498821840960e-01  4.6669583922455021e-01  4.6787504353784709e-01  4.7132546467853448e-01  4.7656651817821155e-01  4.8292515990492829e-01  4.8967488294068817e-01  4.9617766535518415e-01  5.0199450555329961e-01  5.0693898275983840e-01  5.1106301548495103e-01  5.1458138172748646e-01  5.1775771650167723e-01  5.2078577183808328e-01  5.2370254658269333e-01  5.2636237617870618e-01  5.2848269490314559e-01  5.2974547082518642e-01  5.2991150736085180e-01  5.2889307261183593e-01  5.2674964455501805e-01  5.2362225129882323e-01  5.1967292211972416e-01  5.1509644143602451e-01  5.1020167510328407e-01  5.0547341242045685e-01  5.0151580774601268e-01  4.9887157246241870e-01  4.9782175166663550e-01  4.9829338920173799e-01  4.9992500477875851e-01  5.0224039445204938e-01  5.0483317665764549e-01  5.0747843963001060e-01  5.1013045843142502e-01  5.1280289959381864e-01  5.1534659930249471e-01  5.1714409926090055e-01  5.1675741834954614e-01  5.1179431701578149e-01  5.0115153624628783e-01  4.9998148583164465e-01  5.6466816174019197e-01  6.4568293014686950e-01  6.1228809526081707e-01  4.9616014006821485e-01  4.7215832379928713e-01  6.1728551697660627e-01  7.3316507922999419e-01  7.5751423257514672e-01  7.4874328541803037e-01  6.8804081906647352e-01  5.3698638249414432e-01  4.6470733796662433e-01  4.7720047692572820e-01  4.9435562072177119e-01  5.0340291889067645e-01  5.0611605785580338e-01  5.0514631550696210e-01  5.0256247736629545e-01  4.9985221438282113e-01  4.9799580166157992e-01  4.9751019184293377e-01  4.9848767491021484e-01  5.0065686324636460e-01  5.0347606897555819e-01  5.0624713137525001e-01  5.0822053174835813e-01  5.0865719757796612e-01  5.0682353268762648e-01  5.0192418884214163e-01  4.9301416658079061e-01  4.7896748167426967e-01  4.5872069082046241e-01  4.3384578379607025e-01  4.3217126476356982e-01  5.5558826364047120e-01  6.8160582854316998e-01  6.9454564204907776e-01  6.7765717620571619e-01  6.5913449392360945e-01  6.4426341103199236e-01  6.3483956520860096e-01  6.3162398918290785e-01  5.6291733454353321e-01  5.6179186077228704e-01  5.5856973177085001e-01  5.5367161373993312e-01  5.4767380674358335e-01  5.4116815071949143e-01  5.3463584130910857e-01  5.2836580766916308e-01  5.2243018218139448e-01  5.1671525061248935e-01  5.1099773750977839e-01  5.0504961313216101e-01  4.9874744664042753e-01  4.9215732802868384e-01  4.8556876236450169e-01  4.7946323787383743e-01  4.7442231746573599e-01  4.7099898143312896e-01  4.6958743592006480e-01  4.7032693229138128e-01  4.7306492756179275e-01  4.7738811638577933e-01  4.8271182972536281e-01  4.8840388521823375e-01  4.9391139274240770e-01  4.9885947179421480e-01  5.0309873623822465e-01  5.0669173527690581e-01  5.0984427205478777e-01  5.1280209012485400e-01  5.1574334522354381e-01  5.1869973749796683e-01  5.2153236693065030e-01  5.2397198582393401e-01  5.2570979214820435e-01  5.2650154138365968e-01  5.2623748881622667e-01  5.2494672757725280e-01  5.2274673570434127e-01  5.1979158732963582e-01  5.1627401465460299e-01  5.1248116840254210e-01  5.0883503069445268e-01  5.0584002009710516e-01  5.0393381350266586e-01  5.0332568769837827e-01  5.0392523713176485e-01  5.0540228447948055e-01  5.0733748189337435e-01  5.0938234024014961e-01  5.1135762254611072e-01  5.1325445734340291e-01  5.1513620635904289e-01  5.1696039251859438e-01  5.1835347441050617e-01  5.1839795549913836e-01  5.1560461685052472e-01  5.0864861637288472e-01  4.9913034697165548e-01  4.9475784516570859e-01  4.9811311696408150e-01  4.8609374011367823e-01  4.6432791340089707e-01  4.5407672510788660e-01  4.8377559549153809e-01  5.6894128395003207e-01  6.2166843025279028e-01  5.9824774841650563e-01  5.1730330292065985e-01  4.6398558372544324e-01  4.6787184020262784e-01  4.8509754395173282e-01  4.9798257073593338e-01  5.0451144222728850e-01  5.0627719400754323e-01  5.0517121005559229e-01  5.0277815982360607e-01  5.0029988545684134e-01  4.9855400133318983e-01  4.9797829684426970e-01  4.9864791352329157e-01  5.0032137648834618e-01  5.0252034131659462e-01  5.0463070888670647e-01  5.0599848327702968e-01  5.0598911795265178e-01  5.0398874345309663e-01  4.9935023936304607e-01  4.9132027576130627e-01  4.7901389381992771e-01  4.6155815559992613e-01  4.3903158000409964e-01  4.1800449318051819e-01  4.3910093312212922e-01  5.5991094798476204e-01  6.5744890296509395e-01  6.7924413908428705e-01  6.7381347543777548e-01  6.6431106443506138e-01  6.5730494137758844e-01  6.5481316760301322e-01  5.4859265833359994e-01  5.4771650870978705e-01  5.4521107905157906e-01  5.4141205651950308e-01  5.3677960857861684e-01  5.3178523041860193e-01  5.2680778080618118e-01  5.2206461822018524e-01  5.1759022818919831e-01  5.1326268872132241e-01  5.0886969123200543e-01  5.0419896777791839e-01  4.9913183997124017e-01  4.9371517889332395e-01  4.8818981385510679e-01  4.8296385416420196e-01  4.7853505018543863e-01  4.7538181114618161e-01  4.7385223733992243e-01  4.7408127278004869e-01  4.7595794938812264e-01  4.7915063733675717e-01  4.8318266534535403e-01  4.8753795000075539e-01  4.9176940840736905e-01  4.9558316245995099e-01  4.9887839429897901e-01  5.0173434945007989e-01  5.0434967750481463e-01  5.0695191574606913e-01  5.0970344818651381e-01  5.1263229795453336e-01  5.1561016946791116e-01  5.1838616444814145e-01  5.2066483717354750e-01  5.2219790453506321e-01  5.2285033920670998e-01  5.2261386228615336e-01  5.2157352293114789e-01  5.1986625808815956e-01  5.1767319088282338e-01  5.1524815732767282e-01  5.1293526251787314e-01  5.1112161243822285e-01  5.1012349784677369e-01  5.1006771290193542e-01  5.1084346194703911e-01  5.1215523350280723e-01  5.1364644276942051e-01  5.1503159414419297e-01  5.1618035525052131e-01  5.1712305434543782e-01  5.1797509734001579e-01  5.1879990972084444e-01  5.1944797308494495e-01  5.1943217384969231e-01  5.1794232786302019e-01  5.1416048578098628e-01  5.0795334781764068e-01  5.0039279823271532e-01  4.9292268018365581e-01  4.8597648790638609e-01  4.7793460388217046e-01  4.6779577556621588e-01  4.5881818326765222e-01  4.5904205763867151e-01  4.6462174848152843e-01  4.6068054307572737e-01  4.5646779814071481e-01  4.6486438393526597e-01  4.7918937179925880e-01  4.9211716614536527e-01  5.0076636968955546e-01  5.0509482343729739e-01  5.0610890338096182e-01  5.0502731864184680e-01  5.0296828542777572e-01  5.0083595845269147e-01  4.9927010278600054e-01  4.9862039774985051e-01  4.9894493224921616e-01  5.0004086994116426e-01  5.0150837885400967e-01  5.0283618313486700e-01  5.0348572150779125e-01  5.0294676175332065e-01  5.0074482592338743e-01  4.9640103172946487e-01  4.8937303875847732e-01  4.7903071087953741e-01  4.6473815780113037e-01  4.4618187302570267e-01  4.2460646929663615e-01  4.0689979351650024e-01  4.1915506696465255e-01  4.9168303211724507e-01  5.8223797976955727e-01  6.3180131886237234e-01  6.5055743791852250e-01  6.5699434914428700e-01  6.5854399201388392e-01  5.3228016479633355e-01  5.3167106764293992e-01  5.2993662271145081e-01  5.2733007253575537e-01  5.2419762744247644e-01  5.2089053497672666e-01  5.1768253088477367e-01  5.1471393188845860e-01  5.1197415114902411e-01  5.0932443771305991e-01  5.0655420947993590e-01  5.0345752582257053e-01  4.9991116764831506e-01  4.9593387934915428e-01  4.9170944614664858e-01  4.8756491497957477e-01  4.8390748889389362e-01  4.8113566607861075e-01  4.7954805989872895e-01  4.7927440626838541e-01  4.8024719774492658e-01  4.8222112553629537e-01  4.8483452606280447e-01  4.8769607519997127e-01  4.9047390706810606e-01  4.9296440893654492e-01  4.9512375513836149e-01  4.9705512106347111e-01  4.9895605756382583e-01  5.0104105008523969e-01  5.0346134210331717e-01  5.0624569230158634e-01  5.0928071605021097e-01  5.1233793663514415e-01  5.1513872874270517e-01  5.1743298869301868e-01  5.1906042294323740e-01  5.1997197644309545e-01  5.2021242684866453e-01  5.1988945291501987e-01  5.1915836875576094e-01  5.1822722832884704e-01  5.1735490070153145e-01  5.1680973121097118e-01  5.1678906090823551e-01  5.1734026321827142e-01  5.1833301978841984e-01  5.1950351371242454e-01  5.2055098340454875e-01  5.2124375144450164e-01  5.2149213089620339e-01  5.2136071603771550e-01  5.2101345299595592e-01  5.2060716354955350e-01  5.2016971250039656e-01  5.1951490269422596e-01  5.1825482437947734e-01  5.1595753284095036e-01  5.1242023770628042e-01  5.0786007826568424e-01  5.0272944401526232e-01  4.9712234238301528e-01  4.9050693996278816e-01  4.8238896238878920e-01  4.7342581116973104e-01  4.6563543346707387e-01  4.6152333618956021e-01  4.6272080034265811e-01  4.6900604646507066e-01  4.7839389489358403e-01  4.8826512816642648e-01  4.9647402773552085e-01  5.0202491757861611e-01  5.0487443384981634e-01  5.0552401422919002e-01  5.0469267835275311e-01  5.0311677510857444e-01  5.0143542591037893e-01  5.0012160047429377e-01  4.9944121037758404e-01  4.9943930547383464e-01  4.9995728963610120e-01  5.0068066563235347e-01  5.0120781365525158e-01  5.0112132715120317e-01  5.0003914339345246e-01  4.9762743564158562e-01  4.9357280699860545e-01  4.8753420516224139e-01  4.7911549836109624e-01  4.6790653818293237e-01  4.5363587034055147e-01  4.3648155590000237e-01  4.1776930173238969e-01  4.0118429717438692e-01  3.9569006606472062e-01  4.1233431285683758e-01  4.4679353546527822e-01  4.8491245357723273e-01  5.1391602608546783e-01  5.2463165676341006e-01  5.1524238017269908e-01  5.1489322240709134e-01  5.1391328174544348e-01  5.1248612231817881e-01  5.1086016435722370e-01  5.0928088719400677e-01  5.0792595198628432e-01  5.0686064617575199e-01  5.0602454679076692e-01  5.0525199711658042e-01  5.0432089662276736e-01  5.0301769469407132e-01  5.0120240965575669e-01  4.9885697451769095e-01  4.9610376621308727e-01  4.9318832518341493e-01  4.9042943337368622e-01  4.8814856422667113e-01  4.8659676622144771e-01  4.8589833932479548e-01  4.8602648794487263e-01  4.8681745717088659e-01  4.8801901841837336e-01  4.8935980983638599e-01  4.9062068579408424e-01  4.9168917746783519e-01  4.9258306290301551e-01  4.9343733723304878e-01  4.9445844439764253e-01  4.9585828376721902e-01  4.9778623887190449e-01  5.0027869974936690e-01  5.0324137336213748e-01  5.0647033255668739e-01  5.0970514522609289e-01  5.1269554848702159e-01  5.1525761883012289e-01  5.1730096765833378e-01  5.1882441235490218e-01  5.1989456091324926e-01  5.2062639959053514e-01  5.2117213484757841e-01  5.2170616528389546e-01  5.2239027961303930e-01  5.2332045835775398e-01  5.2447875677321287e-01  5.2571915054343055e-01  5.2680089583177592e-01  5.2746061054874216e-01  5.2749843032581800e-01  5.2684729885858450e-01  5.2559682735985702e-01  5.2395637030354292e-01  5.2216611448988171e-01  5.2039068398057242e-01  5.1864293627050628e-01  5.1677850562398064e-01  5.1457345520070918e-01  5.1184854727004669e-01  5.0855031558727470e-01  5.0470280154838465e-01  5.0027510480659576e-01  4.9516195032450100e-01  4.8941570673030443e-01  4.8357788932856582e-01  4.7877960384588536e-01  4.7637046770762809e-01  4.7718972759384287e-01  4.8101657585012869e-01  4.8669542330341287e-01  4.9276156413616579e-01  4.9802267267458555e-01  5.0180769719309903e-01  5.0394962354584250e-01  5.0463974497771180e-01  5.0426661037503495e-01  5.0328575334616477e-01  5.0212511027771023e-01  5.0111837018908190e-01  5.0046150723057259e-01  5.0019309490019737e-01  5.0020076122020674e-01  5.0025360380478123e-01  5.0005455519597042e-01  4.9929940555860597e-01  4.9772388814477658e-01  4.9512158543218432e-01  4.9132648297068893e-01  4.8617262154422686e-01  4.7946105246971998e-01  4.7097012670345811e-01  4.6053203087653194e-01  4.4817274406818447e-01  4.3427931073112669e-01  4.1978225468183622e-01  4.0621062677082126e-01  3.9551104807102189e-01  3.8971433561842628e-01  3.8926651264471146e-01  3.9181680406267633e-01  3.9336242654508580e-01  4.9875322791978666e-01  4.9863681017438199e-01  4.9833697734118743e-01  4.9798690491696473e-01  4.9776269659975581e-01  4.9782868302188393e-01  4.9828447526524422e-01  4.9912863936304297e-01  5.0024911486510282e-01  5.0144322304564826e-01  5.0246221136080538e-01  5.0306884788911987e-01  5.0309337934850762e-01  5.0247394665034129e-01  5.0127173459224572e-01  4.9965729671268366e-01  4.9787119517877643e-01  4.9616819665060147e-01  4.9475867957814784e-01  4.9376236363903608e-01  4.9318692921173479e-01  4.9293761821661042e-01  4.9285517336340789e-01  4.9277129885012483e-01  4.9256591708403352e-01  4.9221025551818010e-01  4.9178394862185076e-01  4.9146140500297275e-01  4.9147076277390772e-01  4.9203600694083016e-01  4.9331762843600707e-01  4.9536821826085808e-01  4.9811584670698777e-01  5.0138030340026318e-01  5.0491709046747546e-01  5.0847476161373339e-01  5.1184679786590759e-01  5.1490262958198363e-01  5.1759290869746344e-01  5.1993594182153513e-01  5.2199734446886048e-01  5.2387009671476092e-01  5.2565303319669632e-01  5.2742258729420954e-01  5.2919911084682902e-01  5.3091849893267007e-01  5.3242319789885251e-01  5.3348253222275965e-01  5.3384463528868087e-01  5.3331189290264069e-01  5.3181715401442620e-01  5.2946572182991269e-01  5.2651386708550962e-01  5.2328444455577761e-01  5.2005653266033913e-01  5.1698133843794380e-01  5.1406050303873041e-01  5.1118828162698648e-01  5.0822598472031866e-01  5.0506228972238998e-01  5.0163079033994029e-01  4.9790381634065700e-01  4.9391785178509912e-01  4.8985728182889487e-01  4.8614004362503094e-01  4.8339288507904082e-01  4.8225138884233482e-01  4.8306101941173296e-01  4.8567450204547152e-01  4.8949411930647074e-01  4.9371728752680483e-01  4.9761155981674193e-01  5.0068422544639157e-01  5.0272336490635083e-01  5.0375465454619084e-01  5.0396380114129724e-01  5.0361607907099282e-01  5.0298646332951547e-01  5.0230454491004484e-01  5.0171565760010639e-01  5.0125955787175336e-01  5.0086840893118367e-01  5.0038541738170983e-01  4.9960255719875696e-01  4.9830952908142712e-01  4.9633883274401530e-01  4.9358923699991736e-01  4.9001701993876878e-01  4.8560036982739735e-01  4.8029936504857362e-01  4.7404117594977480e-01  4.6675103684175479e-01  4.5842649515933109e-01  4.4922782346921708e-01  4.3953988817959438e-01  4.2996547012399677e-01  4.2123465955115763e-01  4.1402863846008608e-01  4.0881418439243633e-01  4.0574964643824341e-01  4.0475419421898440e-01  4.8400616883182895e-01  4.8408088639889985e-01  4.8434452599372757e-01  4.8490203798861242e-01  4.8588719072006353e-01  4.8741330766379043e-01  4.8952555160100897e-01  4.9216868709376066e-01  4.9518018291378901e-01  4.9831149565045091e-01  5.0127226176547413e-01  5.0378557666767598e-01  5.0563994102554088e-01  5.0672545894534327e-01  5.0704698836516571e-01  5.0671278112880735e-01  5.0590214623708929e-01  5.0481960478918020e-01  5.0364603465883351e-01  5.0249883997728551e-01  5.0141195572426445e-01  5.00341757422