<?xml version="1.0"?>
<VTKFile type="UnstructuredGrid"  version="0.1"  >
<UnstructuredGrid>
<Piece  NumberOfPoints="20201" NumberOfCells="40000">
<Points>
<DataArray  type="Float64"  NumberOfComponents="3"  format="ascii">0 0 0  2 0 0  4 0 0  6 0 0  8 0 0  10 0 0  12 0 0  14 0 0  16 0 0  18 0 0  20 0 0  22 0 0  24 0 0  26 0 0  28 0 0  30 0 0  32 0 0  34 0 0  36 0 0  38 0 0  40 0 0  42 0 0  44 0 0  46 0 0  48 0 0  50 0 0  52 0 0  54 0 0  56 0 0  58 0 0  60 0 0  62 0 0  64 0 0  66 0 0  68 0 0  70 0 0  72 0 0  74 0 0  76 0 0  78 0 0  80 0 0  82 0 0  84 0 0  86 0 0  88 0 0  90 0 0  92 0 0  94 0 0  96 0 0  98 0 0  100 0 0  102 0 0  104 0 0  106 0 0  108 0 0  110 0 0  112 0 0  114 0 0  116 0 0  118 0 0  120 0 0  122 0 0  124 0 0  126 0 0  128 0 0  130 0 0  132 0 0  134 0 0  136 0 0  138 0 0  140 0 0  142 0 0  144 0 0  146 0 0  148 0 0  150 0 0  152 0 0  154 0 0  156 0 0  158 0 0  160 0 0  162 0 0  164 0 0  166 0 0  168 0 0  170 0 0  172 0 0  174 0 0  176 0 0  178 0 0  180 0 0  182 0 0  184 0 0  186 0 0  188 0 0  190 0 0  192 0 0  194 0 0  196 0 0  198 0 0  200 0 0  0 2 0  2 2 0  4 2 0  6 2 0  8 2 0  10 2 0  12 2 0  14 2 0  16 2 0  18 2 0  20 2 0  22 2 0  24 2 0  26 2 0  28 2 0  30 2 0  32 2 0  34 2 0  36 2 0  38 2 0  40 2 0  42 2 0  44 2 0  46 2 0  48 2 0  50 2 0  52 2 0  54 2 0  56 2 0  58 2 0  60 2 0  62 2 0  64 2 0  66 2 0  68 2 0  70 2 0  72 2 0  74 2 0  76 2 0  78 2 0  80 2 0  82 2 0  84 2 0  86 2 0  88 2 0  90 2 0  92 2 0  94 2 0  96 2 0  98 2 0  100 2 0  102 2 0  104 2 0  106 2 0  108 2 0  110 2 0  112 2 0  114 2 0  116 2 0  118 2 0  120 2 0  122 2 0  124 2 0  126 2 0  128 2 0  130 2 0  132 2 0  134 2 0  136 2 0  138 2 0  140 2 0  142 2 0  144 2 0  146 2 0  148 2 0  150 2 0  152 2 0  154 2 0  156 2 0  158 2 0  160 2 0  162 2 0  164 2 0  166 2 0  168 2 0  170 2 0  172 2 0  174 2 0  176 2 0  178 2 0  180 2 0  182 2 0  184 2 0  186 2 0  188 2 0  190 2 0  192 2 0  194 2 0  196 2 0  198 2 0  200 2 0  0 4 0  2 4 0  4 4 0  6 4 0  8 4 0  10 4 0  12 4 0  14 4 0  16 4 0  18 4 0  20 4 0  22 4 0  24 4 0  26 4 0  28 4 0  30 4 0  32 4 0  34 4 0  36 4 0  38 4 0  40 4 0  42 4 0  44 4 0  46 4 0  48 4 0  50 4 0  52 4 0  54 4 0  56 4 0  58 4 0  60 4 0  62 4 0  64 4 0  66 4 0  68 4 0  70 4 0  72 4 0  74 4 0  76 4 0  78 4 0  80 4 0  82 4 0  84 4 0  86 4 0  88 4 0  90 4 0  92 4 0  94 4 0  96 4 0  98 4 0  100 4 0  102 4 0  104 4 0  106 4 0  108 4 0  110 4 0  112 4 0  114 4 0  116 4 0  118 4 0  120 4 0  122 4 0  124 4 0  126 4 0  128 4 0  130 4 0  132 4 0  134 4 0  136 4 0  138 4 0  140 4 0  142 4 0  144 4 0  146 4 0  148 4 0  150 4 0  152 4 0  154 4 0  156 4 0  158 4 0  160 4 0  162 4 0  164 4 0  166 4 0  168 4 0  170 4 0  172 4 0  174 4 0  176 4 0  178 4 0  180 4 0  182 4 0  184 4 0  186 4 0  188 4 0  190 4 0  192 4 0  194 4 0  196 4 0  198 4 0  200 4 0  0 6 0  2 6 0  4 6 0  6 6 0  8 6 0  10 6 0  12 6 0  14 6 0  16 6 0  18 6 0  20 6 0  22 6 0  24 6 0  26 6 0  28 6 0  30 6 0  32 6 0  34 6 0  36 6 0  38 6 0  40 6 0  42 6 0  44 6 0  46 6 0  48 6 0  50 6 0  52 6 0  54 6 0  56 6 0  58 6 0  60 6 0  62 6 0  64 6 0  66 6 0  68 6 0  70 6 0  72 6 0  74 6 0  76 6 0  78 6 0  80 6 0  82 6 0  84 6 0  86 6 0  88 6 0  90 6 0  92 6 0  94 6 0  96 6 0  98 6 0  100 6 0  102 6 0  104 6 0  106 6 0  108 6 0  110 6 0  112 6 0  114 6 0  116 6 0  118 6 0  120 6 0  122 6 0  124 6 0  126 6 0  128 6 0  130 6 0  132 6 0  134 6 0  136 6 0  138 6 0  140 6 0  142 6 0  144 6 0  146 6 0  148 6 0  150 6 0  152 6 0  154 6 0  156 6 0  158 6 0  160 6 0  162 6 0  164 6 0  166 6 0  168 6 0  170 6 0  172 6 0  174 6 0  176 6 0  178 6 0  180 6 0  182 6 0  184 6 0  186 6 0  188 6 0  190 6 0  192 6 0  194 6 0  196 6 0  198 6 0  200 6 0  0 8 0  2 8 0  4 8 0  6 8 0  8 8 0  10 8 0  12 8 0  14 8 0  16 8 0  18 8 0  20 8 0  22 8 0  24 8 0  26 8 0  28 8 0  30 8 0  32 8 0  34 8 0  36 8 0  38 8 0  40 8 0  42 8 0  44 8 0  46 8 0  48 8 0  50 8 0  52 8 0  54 8 0  56 8 0  58 8 0  60 8 0  62 8 0  64 8 0  66 8 0  68 8 0  70 8 0  72 8 0  74 8 0  76 8 0  78 8 0  80 8 0  82 8 0  84 8 0  86 8 0  88 8 0  90 8 0  92 8 0  94 8 0  96 8 0  98 8 0  100 8 0  102 8 0  104 8 0  106 8 0  108 8 0  110 8 0  112 8 0  114 8 0  116 8 0  118 8 0  120 8 0  122 8 0  124 8 0  126 8 0  128 8 0  130 8 0  132 8 0  134 8 0  136 8 0  138 8 0  140 8 0  142 8 0  144 8 0  146 8 0  148 8 0  150 8 0  152 8 0  154 8 0  156 8 0  158 8 0  160 8 0  162 8 0  164 8 0  166 8 0  168 8 0  170 8 0  172 8 0  174 8 0  176 8 0  178 8 0  180 8 0  182 8 0  184 8 0  186 8 0  188 8 0  190 8 0  192 8 0  194 8 0  196 8 0  198 8 0  200 8 0  0 10 0  2 10 0  4 10 0  6 10 0  8 10 0  10 10 0  12 10 0  14 10 0  16 10 0  18 10 0  20 10 0  22 10 0  24 10 0  26 10 0  28 10 0  30 10 0  32 10 0  34 10 0  36 10 0  38 10 0  40 10 0  42 10 0  44 10 0  46 10 0  48 10 0  50 10 0  52 10 0  54 10 0  56 10 0  58 10 0  60 10 0  62 10 0  64 10 0  66 10 0  68 10 0  70 10 0  72 10 0  74 10 0  76 10 0  78 10 0  80 10 0  82 10 0  84 10 0  86 10 0  88 10 0  90 10 0  92 10 0  94 10 0  96 10 0  98 10 0  100 10 0  102 10 0  104 10 0  106 10 0  108 10 0  110 10 0  112 10 0  114 10 0  116 10 0  118 10 0  120 10 0  122 10 0  124 10 0  126 10 0  128 10 0  130 10 0  132 10 0  134 10 0  136 10 0  138 10 0  140 10 0  142 10 0  144 10 0  146 10 0  148 10 0  150 10 0  152 10 0  154 10 0  156 10 0  158 10 0  160 10 0  162 10 0  164 10 0  166 10 0  168 10 0  170 10 0  172 10 0  174 10 0  176 10 0  178 10 0  180 10 0  182 10 0  184 10 0  186 10 0  188 10 0  190 10 0  192 10 0  194 10 0  196 10 0  198 10 0  200 10 0  0 12 0  2 12 0  4 12 0  6 12 0  8 12 0  10 12 0  12 12 0  14 12 0  16 12 0  18 12 0  20 12 0  22 12 0  24 12 0  26 12 0  28 12 0  30 12 0  32 12 0  34 12 0  36 12 0  38 12 0  40 12 0  42 12 0  44 12 0  46 12 0  48 12 0  50 12 0  52 12 0  54 12 0  56 12 0  58 12 0  60 12 0  62 12 0  64 12 0  66 12 0  68 12 0  70 12 0  72 12 0  74 12 0  76 12 0  78 12 0  80 12 0  82 12 0  84 12 0  86 12 0  88 12 0  90 12 0  92 12 0  94 12 0  96 12 0  98 12 0  100 12 0  102 12 0  104 12 0  106 12 0  108 12 0  110 12 0  112 12 0  114 12 0  116 12 0  118 12 0  120 12 0  122 12 0  124 12 0  126 12 0  128 12 0  130 12 0  132 12 0  134 12 0  136 12 0  138 12 0  140 12 0  142 12 0  144 12 0  146 12 0  148 12 0  150 12 0  152 12 0  154 12 0  156 12 0  158 12 0  160 12 0  162 12 0  164 12 0  166 12 0  168 12 0  170 12 0  172 12 0  174 12 0  176 12 0  178 12 0  180 12 0  182 12 0  184 12 0  186 12 0  188 12 0  190 12 0  192 12 0  194 12 0  196 12 0  198 12 0  200 12 0  0 14 0  2 14 0  4 14 0  6 14 0  8 14 0  10 14 0  12 14 0  14 14 0  16 14 0  18 14 0  20 14 0  22 14 0  24 14 0  26 14 0  28 14 0  30 14 0  32 14 0  34 14 0  36 14 0  38 14 0  40 14 0  42 14 0  44 14 0  46 14 0  48 14 0  50 14 0  52 14 0  54 14 0  56 14 0  58 14 0  60 14 0  62 14 0  64 14 0  66 14 0  68 14 0  70 14 0  72 14 0  74 14 0  76 14 0  78 14 0  80 14 0  82 14 0  84 14 0  86 14 0  88 14 0  90 14 0  92 14 0  94 14 0  96 14 0  98 14 0  100 14 0  102 14 0  104 14 0  106 14 0  108 14 0  110 14 0  112 14 0  114 14 0  116 14 0  118 14 0  120 14 0  122 14 0  124 14 0  126 14 0  128 14 0  130 14 0  132 14 0  134 14 0  136 14 0  138 14 0  140 14 0  142 14 0  144 14 0  146 14 0  148 14 0  150 14 0  152 14 0  154 14 0  156 14 0  158 14 0  160 14 0  162 14 0  164 14 0  166 14 0  168 14 0  170 14 0  172 14 0  174 14 0  176 14 0  178 14 0  180 14 0  182 14 0  184 14 0  186 14 0  188 14 0  190 14 0  192 14 0  194 14 0  196 14 0  198 14 0  200 14 0  0 16 0  2 16 0  4 16 0  6 16 0  8 16 0  10 16 0  12 16 0  14 16 0  16 16 0  18 16 0  20 16 0  22 16 0  24 16 0  26 16 0  28 16 0  30 16 0  32 16 0  34 16 0  36 16 0  38 16 0  40 16 0  42 16 0  44 16 0  46 16 0  48 16 0  50 16 0  52 16 0  54 16 0  56 16 0  58 16 0  60 16 0  62 16 0  64 16 0  66 16 0  68 16 0  70 16 0  72 16 0  74 16 0  76 16 0  78 16 0  80 16 0  82 16 0  84 16 0  86 16 0  88 16 0  90 16 0  92 16 0  94 16 0  96 16 0  98 16 0  100 16 0  102 16 0  104 16 0  106 16 0  108 16 0  110 16 0  112 16 0  114 16 0  116 16 0  118 16 0  120 16 0  122 16 0  124 16 0  126 16 0  128 16 0  130 16 0  132 16 0  134 16 0  136 16 0  138 16 0  140 16 0  142 16 0  144 16 0  146 16 0  148 16 0  150 16 0  152 16 0  154 16 0  156 16 0  158 16 0  160 16 0  162 16 0  164 16 0  166 16 0  168 16 0  170 16 0  172 16 0  174 16 0  176 16 0  178 16 0  180 16 0  182 16 0  184 16 0  186 16 0  188 16 0  190 16 0  192 16 0  194 16 0  196 16 0  198 16 0  200 16 0  0 18 0  2 18 0  4 18 0  6 18 0  8 18 0  10 18 0  12 18 0  14 18 0  16 18 0  18 18 0  20 18 0  22 18 0  24 18 0  26 18 0  28 18 0  30 18 0  32 18 0  34 18 0  36 18 0  38 18 0  40 18 0  42 18 0  44 18 0  46 18 0  48 18 0  50 18 0  52 18 0  54 18 0  56 18 0  58 18 0  60 18 0  62 18 0  64 18 0  66 18 0  68 18 0  70 18 0  72 18 0  74 18 0  76 18 0  78 18 0  80 18 0  82 18 0  84 18 0  86 18 0  88 18 0  90 18 0  92 18 0  94 18 0  96 18 0  98 18 0  100 18 0  102 18 0  104 18 0  106 18 0  108 18 0  110 18 0  112 18 0  114 18 0  116 18 0  118 18 0  120 18 0  122 18 0  124 18 0  126 18 0  128 18 0  130 18 0  132 18 0  134 18 0  136 18 0  138 18 0  140 18 0  142 18 0  144 18 0  146 18 0  148 18 0  150 18 0  152 18 0  154 18 0  156 18 0  158 18 0  160 18 0  162 18 0  164 18 0  166 18 0  168 18 0  170 18 0  172 18 0  174 18 0  176 18 0  178 18 0  180 18 0  182 18 0  184 18 0  186 18 0  188 18 0  190 18 0  192 18 0  194 18 0  196 18 0  198 18 0  200 18 0  0 20 0  2 20 0  4 20 0  6 20 0  8 20 0  10 20 0  12 20 0  14 20 0  16 20 0  18 20 0  20 20 0  22 20 0  24 20 0  26 20 0  28 20 0  30 20 0  32 20 0  34 20 0  36 20 0  38 20 0  40 20 0  42 20 0  44 20 0  46 20 0  48 20 0  50 20 0  52 20 0  54 20 0  56 20 0  58 20 0  60 20 0  62 20 0  64 20 0  66 20 0  68 20 0  70 20 0  72 20 0  74 20 0  76 20 0  78 20 0  80 20 0  82 20 0  84 20 0  86 20 0  88 20 0  90 20 0  92 20 0  94 20 0  96 20 0  98 20 0  100 20 0  102 20 0  104 20 0  106 20 0  108 20 0  110 20 0  112 20 0  114 20 0  116 20 0  118 20 0  120 20 0  122 20 0  124 20 0  126 20 0  128 20 0  130 20 0  132 20 0  134 20 0  136 20 0  138 20 0  140 20 0  142 20 0  144 20 0  146 20 0  148 20 0  150 20 0  152 20 0  154 20 0  156 20 0
[...]
<PointData  Scalars="f_271-0"> 
<DataArray  type="Float64"  Name="f_271-0"  format="ascii">5.3256199317891395e-01  5.3224134559896563e-01  5.3129367750647283e-01  5.2976007004050985e-01  5.2770358912003423e-01  5.2520249545719111e-01  5.2234300347904783e-01  5.1921311094751688e-01  5.1589862975255441e-01  5.1248187304864101e-01  5.0904267939676207e-01  5.0566078804326087e-01  5.0241819659864262e-01  4.9940013316516835e-01  4.9669365905550661e-01  4.9438358529571547e-01  4.9254616121568057e-01  4.9124167207691249e-01  4.9050748419163043e-01  4.9035309153640555e-01  4.9075833983842321e-01  4.9167532825736177e-01  4.9303368839321099e-01  4.9474821959951037e-01  4.9672739900152268e-01  4.9888119361530109e-01  5.0112689113272613e-01  5.0339224633882185e-01  5.0561594940761101e-01  5.0774607041330355e-01  5.0973755613088700e-01  5.1154995497644151e-01  5.1314632125458981e-01  5.1449378652215350e-01  5.1556572630211273e-01  5.1634494635520034e-01  5.1682697944348266e-01  5.1702247207711416e-01  5.1695773719911686e-01  5.1667279526379295e-01  5.1621654818720919e-01  5.1563905363311868e-01  5.1498111569406080e-01  5.1426149667045518e-01  5.1346188649954094e-01  5.1250925036962791e-01  5.1125424950182374e-01  5.0944305609638330e-01  5.0667794639996055e-01  5.0235907369570554e-01  4.9559438037234865e-01  4.8505617606517237e-01  4.6881460590259449e-01  4.4566709806645277e-01  4.4379257906681491e-01  5.9786385597292635e-01  7.3525621405396635e-01  7.5742735378558590e-01  7.6176057990051160e-01  7.6394427462797687e-01  7.6320128273935561e-01  7.4006035858900043e-01  6.2313808750265198e-01  6.8909856343025400e-01  7.4929965416707001e-01  7.5362883066928255e-01  7.5297470167733616e-01  7.5167327724624222e-01  7.4994686222082496e-01  7.4784493284069897e-01  7.4445283001291451e-01  7.2254792602786333e-01  5.8040239240483638e-01  4.2566663732696902e-01  4.2677434200459358e-01  4.4971201607615363e-01  4.6661277312047666e-01  4.7799289951367702e-01  4.8537905768522360e-01  4.8985824806625961e-01  4.9213608196593606e-01  4.9262035476296223e-01  4.9147926875075298e-01  4.8868266737161298e-01  4.8403055339219930e-01  4.7716935870740901e-01  4.6759333543387865e-01  4.5462599717397773e-01  4.3742086111584022e-01  4.1610735472583593e-01  4.1446914391459022e-01  5.6122846870769505e-01  7.1361636177578369e-01  7.3259357857814467e-01  7.2822834845492912e-01  7.2239208436682656e-01  7.1693134712858519e-01  7.1226122605370257e-01  7.0867897493692145e-01  7.0642409741330647e-01  7.0565413585449532e-01  5.3189152871638490e-01  5.3157854685694650e-01  5.3065357304163141e-01  5.2915680337829030e-01  5.2714990316909982e-01  5.2470931463981152e-01  5.2191912851085476e-01  5.1886502460825357e-01  5.1563039896942053e-01  5.1229512594710103e-01  5.0893663662469402e-01  5.0563233463950963e-01  5.0246199132206038e-01  4.9950876297324309e-01  4.9685785377472858e-01  4.9459250884000799e-01  4.9278779000313078e-01  4.9150325952236418e-01  4.9077609498418806e-01  4.9061617453837753e-01  4.9100429759129510e-01  4.9189403701469225e-01  4.9321692640410636e-01  4.9488997220201697e-01  4.9682402447642682e-01  4.9893145028873864e-01  5.0113184047767545e-01  5.0335505624550636e-01  5.0554162525522794e-01  5.0764113957501988e-01  5.0960972588438680e-01  5.1140775692438423e-01  5.1299874957657798e-01  5.1434993414589980e-01  5.1543442273259688e-01  5.1623440282613187e-01  5.1674445025338001e-01  5.1697394468786395e-01  5.1694766777837331e-01  5.1670391127236137e-01  5.1628974595284249e-01  5.1575342712220817e-01  5.1513416363730746e-01  5.1444957099193278e-01  5.1368097125946144e-01  5.1275620909593878e-01  5.1152877294495958e-01  5.0975072731951299e-01  5.0703521249620565e-01  5.0280170566095206e-01  4.9619282557998801e-01  4.8594548381005126e-01  4.7024924099602572e-01  4.4783851538511454e-01  4.3969921837325371e-01  5.7050111800790826e-01  7.2672496963142874e-01  7.5651417460029435e-01  7.6167527963074555e-01  7.6383542883329747e-01  7.6228131704676050e-01  7.3276284274213499e-01  6.0162170730849274e-01  6.8171202533901598e-01  7.4788046464350366e-01  7.5317205517905372e-01  7.5264954821514041e-01  7.5135703901817041e-01  7.4961844562804514e-01  7.4747065982007865e-01  7.4352216879021704e-01  7.1562505875368354e-01  5.5758257887415485e-01  4.2195945965619319e-01  4.2848730753012043e-01  4.5093038182965750e-01  4.6737541914176495e-01  4.7847945098195399e-01  4.8569871983103985e-01  4.9007735149795539e-01  4.9229704731365315e-01  4.9275289434160524e-01  4.9160767005139461e-01  4.8883112488053210e-01  4.8422771832164491e-01  4.7745310767019877e-01  4.6801711505116922e-01  4.5526920901045592e-01  4.3840303727634489e-01  4.1741575981030915e-01  4.1049926384514346e-01  5.3498597557518490e-01  7.0415725820172448e-01  7.3143815677846724e-01  7.2812586702714266e-01  7.2250453040061335e-01  7.1716392310039245e-01  7.1258404413494314e-01  7.0906766310265146e-01  7.0685275046940965e-01  7.0609615070876319e-01  5.2993011824102676e-01  5.2963964425692223e-01  5.2878131012251994e-01  5.2739272821493177e-01  5.2553147230960351e-01  5.2326866743641665e-01  5.2068218724718041e-01  5.1785091653318949e-01  5.1485115897783595e-01  5.1175561943297221e-01  5.0863464374427758e-01  5.0555875699854713e-01  5.0260117240467006e-01  4.9983894428765063e-01  4.9735180953187469e-01  4.9521840549435708e-01  4.9351030035808785e-01  4.9228492708199334e-01  4.9157890050153985e-01  4.9140321388867203e-01  4.9174144890113447e-01  4.9255148335092658e-01  4.9377041137628597e-01  4.9532169713762580e-01  4.9712314025308962e-01  4.9909414464298757e-01  5.0116106281542661e-01  5.0325994928895801e-01  5.0533674307759235e-01  5.0734552612341377e-01  5.0924591214394854e-01  5.1100071544651748e-01  5.1257482872824611e-01  5.1393578529624862e-01  5.1505593261260141e-01  5.1591564871680973e-01  5.1650670462488801e-01  5.1683476630573799e-01  5.1692012779883734e-01  5.1679601673894360e-01  5.1650414111999710e-01  5.1608747656350706e-01  5.1558055209329678e-01  5.1499759918398136e-01  5.1431879960818672e-01  5.1347443450004182e-01  5.1232597851137951e-01  5.1064213762366228e-01  5.0806655877903184e-01  5.0407241348337661e-01  4.9789706979985487e-01  4.8844941863076496e-01  4.7422452739549292e-01  4.5394342964891926e-01  4.3609032062792447e-01  5.0025610803938925e-01  6.8169660730061576e-01  7.4895229191798574e-01  7.5989429334796976e-01  7.6223021714169636e-01  7.5628184529014209e-01  6.9707948456177338e-01  5.3259334314847628e-01  6.5091003008459736e-01  7.4191500175472769e-01  7.5164906204439319e-01  7.5169139845459954e-01  7.5043113290400465e-01  7.4862423698016778e-01  7.4608150120177041e-01  7.3885494070998414e-01  6.8441137453772161e-01  4.9717644957545271e-01  4.1728719757104804e-01  4.3347303455659741e-01  4.5437979797184602e-01  4.6955733765757590e-01  4.7988377174335334e-01  4.8662884388437117e-01  4.9072012291418105e-01  4.9277313807410961e-01  4.9314748726505592e-01  4.9199080436360176e-01  4.8927274612951471e-01  4.8481052578731609e-01  4.7828585154676934e-01  4.6925181135614458e-01  4.5712815567595377e-01  4.4121320773489187e-01  4.2125853166882621e-01  4.0551043951775179e-01  4.7018414035957840e-01  6.6082555925327569e-01  7.2480765195677976e-01  7.2723269356805431e-01  7.2271886284513753e-01  7.1778885770392509e-01  7.1347689976143736e-01  7.1014503537277152e-01  7.0803986497790328e-01  7.0731971824437434e-01  5.2682371269787698e-01  5.2656916052459324e-01  5.2581719801750992e-01  5.2460136086228182e-01  5.2297275875495053e-01  5.2099410037934590e-01  5.1873339503939997e-01  5.1625871635442733e-01  5.1363505118840225e-01  5.1092363357883686e-01  5.0818344878485366e-01  5.0547397773698000e-01  5.0285789942566850e-01  5.0040247052651354e-01  4.9817865746823398e-01  4.9625771346993364e-01  4.9470561039238764e-01  4.9357636401569005e-01  4.9290566508933437e-01  4.9270624683704944e-01  4.9296607518753582e-01  4.9364982860246115e-01  4.9470339934623531e-01  4.9606048564437577e-01  4.9764992138655911e-01  4.9940230858241269e-01  5.0125478821161318e-01  5.0315332562520143e-01  5.0505254689251078e-01  5.0691376564408630e-01  5.0870223159316286e-01  5.1038472165527271e-01  5.1192837854687268e-01  5.1330125884984978e-01  5.1447451600669780e-01  5.1542565766397808e-01  5.1614199336878641e-01  5.1662328110854427e-01  5.1688268085965527e-01  5.1694537682853448e-01  5.1684456413286550e-01  5.1661483452937562e-01  5.1628326534248836e-01  5.1585864088642430e-01  5.1531914513483579e-01  5.1459851264881451e-01  5.1357002608233993e-01  5.1202700476372975e-01  5.0965773297334549e-01  5.0601240371055012e-01  5.0046009900887978e-01  4.9213753708212121e-01  4.7992104753791304e-01  4.6271757284055787e-01  4.4247635897069726e-01  4.4490077923722948e-01  5.5505449464081613e-01  6.9120153296132170e-01  7.3737318996000001e-01  7.4240415184640818e-01  7.1164508499031465e-01  5.8171422352222968e-01  4.4255639133062419e-01  5.7062243199305795e-01  7.1935065012113153e-01  7.4707913486806998e-01  7.4966083005829587e-01  7.4867874731080641e-01  7.4637652225786266e-01  7.4111693533113443e-01  7.1617607837210950e-01  5.9447049136924479e-01  4.3753594975590893e-01  4.2056938117346904e-01  4.4108414860385770e-01  4.5953066672230919e-01  4.7287592968364883e-01  4.8205569117604968e-01  4.8809026472346329e-01  4.9174642686636028e-01  4.9354548326194653e-01  4.9379569121804506e-01  4.9262283332926021e-01  4.8999696063474885e-01  4.8575468696490409e-01  4.7961633813580462e-01  4.7119726703892673e-01  4.6001381039905537e-01  4.4550163846372354e-01  4.2726759156681599e-01  4.0779152367118937e-01  4.1506369564748113e-01  5.4732712099492675e-01  6.8903473274820004e-01  7.2108449737860414e-01  7.2188339796366641e-01  7.1839826845097254e-01  7.1465365566246508e-01  7.1162580150404919e-01  7.0968600593622677e-01  7.0901983158331283e-01  5.2280256901604383e-01  5.2259510008966625e-01  5.2198259306443884e-01  5.2099333040573004e-01  5.1967007575719459e-01  5.1806463984885398e-01  5.1623221265389319e-01  5.1422675968789011e-01  5.1209843634446484e-01  5.0989338356269898e-01  5.0765559142951311e-01  5.0542993531077152e-01  5.0326515547582551e-01  5.0121555344435853e-01  4.9934051601316826e-01  4.9770156323152004e-01  4.9635729675179435e-01  4.9535722177680741e-01  4.9473577199325541e-01  4.9450788755204328e-01  4.9466717413783923e-01  4.9518708897984787e-01  4.9602490753555900e-01  4.9712760039207626e-01  4.9843835185541435e-01  4.9990237655656750e-01  5.0147094879582643e-01  5.0310307419394729e-01  5.0476486196156189e-01  5.0642723046189531e-01  5.0806295108057398e-01  5.0964411856930580e-01  5.1114092508467557e-01  5.1252218455285037e-01  5.1375753113419398e-01  5.1482073984172372e-01  5.1569329929001317e-01  5.1636726106431874e-01  5.1684649207704547e-01  5.1714571497822737e-01  5.1728706432819327e-01  5.1729423567182076e-01  5.1718458660282085e-01  5.1695969336417746e-01  5.1659481539389707e-01  5.1602744988936333e-01  5.1514471447333532e-01  5.1376882687687453e-01  5.1163973106593552e-01  5.0839438253497327e-01  5.0354409630776631e-01  4.9645663787415434e-01  4.8636733779612329e-01  4.7252585959648907e-01  4.5504050001152230e-01  4.3876336228945345e-01  4.4678299953158584e-01  5.1513952174954969e-01  5.9345210795012449e-01  6.0526325955493265e-01  5.3644862334506904e-01  4.3696835933073386e-01  3.9769770361805090e-01  4.5509871516722394e-01  6.2704516054872828e-01  7.1924982694990713e-01  7.3897510358632623e-01  7.4055139227628031e-01  7.3389738539314930e-01  7.0738585362627926e-01  6.1407282853040746e-01  4.6440686344925391e-01  4.1726521426297869e-01  4.3101810163754067e-01  4.5027303679350661e-01  4.6571359411086782e-01  4.7695763391922574e-01  4.8479013934716481e-01  4.8997270815752164e-01  4.9309962433194704e-01  4.9458716285475279e-01  4.9468524426921345e-01  4.9349503005144763e-01  4.9098807140947237e-01  4.8702483216946468e-01  4.8137139234890935e-01  4.7371403783642124e-01  4.6367306972210387e-01  4.5082501691625887e-01  4.3480377153982991e-01  4.1605502548162165e-01  4.0067469469356132e-01  4.2634782620244316e-01  5.5613888420357438e-01  6.7272955323219352e-01  7.0930997921215322e-01  7.1527013933520522e-01  7.1439658591520006e-01  7.1243981171697424e-01  7.1096050310220127e-01  7.1043084730835582e-01  5.1816288980893721e-01  5.1801076631617438e-01  5.1756223617832819e-01  5.1683954401405707e-01  5.1587583487163879e-01  5.1471031067168238e-01  5.1338325670925056e-01  5.1193214435252465e-01  5.1038969066489970e-01  5.0878419882451875e-01  5.0714186568656994e-01  5.0549019474638657e-01  5.0386133885671658e-01  5.0229419967682798e-01  5.0083442941861867e-01  4.9953203216324776e-01  4.9843690323071671e-01  4.9759320850650807e-01  4.9703384377944804e-01  4.9677623798354725e-01  4.9682046670581442e-01  4.9715010030264345e-01  4.9773556493097237e-01  4.9853921152091496e-01  4.9952091605399168e-01  5.0064296616801907e-01  5.0187323489654068e-01  5.0318613030763371e-01  5.0456140566167185e-01  5.0598145910648951e-01  5.0742810419481665e-01  5.0887986861406886e-01  5.1031067225811255e-01  5.1169031684053534e-01  5.1298670902994414e-01  5.1416927240008892e-01  5.1521268957315480e-01  5.1610001194254362e-01  5.1682427893844696e-01  5.1738805421485967e-01  5.1780063942822907e-01  5.1807308797635920e-01  5.1821143559516969e-01  5.1820872582940491e-01  5.1803638908546956e-01  5.1763532794165890e-01  5.1690673415166610e-01  5.1570238204026952e-01  5.1381419933360839e-01  5.1096374093164709e-01  5.0679440927799024e-01  5.0087391875674669e-01  4.9272403643607171e-01  4.8191806018288330e-01  4.6835104707121716e-01  4.5297580353759109e-01  4.3920140238342464e-01  4.3404556279914552e-01  4.3982412628350298e-01  4.3825117560537957e-01  4.2160093446533270e-01  4.0676955759319317e-01  3.9929660914679388e-01  4.0389807143687390e-01  4.6103788454080474e-01  5.7591751137917535e-01  6.4956838817412910e-01  6.6489582304993999e-01  6.3552790498029199e-01  5.5221781830544303e-01  4.5318002165373983e-01  4.1717397489875185e-01  4.2650692121962563e-01  4.4408351599975449e-01  4.5992362192083791e-01  4.7229483568231551e-01  4.8142988156387956e-01  4.8787401374277667e-01  4.9215834283621607e-01  4.9471791456384540e-01  4.9586813375082811e-01  4.9580184395779286e-01  4.9459659481866319e-01  4.9222707986046593e-01  4.8857984548898253e-01  4.8346875049152943e-01  4.7665090025493390e-01  4.6784431814133931e-01  4.5675195275444785e-01  4.4311258984675067e-01  4.2688580486145827e-01  4.0921510003521033e-01  3.9622278008450584e-01  4.1392682829853594e-01  4.9977482773194920e-01  6.0800685987962788e-01  6.6748516155458715e-01  6.9143345532927436e-01  7.0039613215670915e-01  7.0342961679471538e-01  7.0412550348437675e-01  5.1324328470702563e-01  5.1315144504116128e-01  5.1288158856839783e-01  5.1244956343502446e-01  5.1187828892944154e-01  5.1119349451011853e-01  5.1041944012797291e-01  5.0957573904986597e-01  5.0867609538694369e-01  5.0772924189997659e-01  5.0674176135508420e-01  5.0572195717796486e-01  5.0468364295819923e-01  5.0364872304741548e-01  5.0264773730522105e-01  5.0171806371947925e-01  5.0090007797121927e-01  5.0023210193353085e-01  4.9974529527898820e-01  4.9945967225228144e-01  4.9938215225509008e-01  4.9950704965057208e-01  4.9981880627290720e-01  5.0029622579212030e-01  5.0091712247739573e-01  5.0166223508745200e-01  5.0251749083371267e-01  5.0347416763946007e-01  5.0452706877562248e-01  5.0567134119966772e-01  5.0689890302407214e-01  5.0819551494975723e-01  5.0953932746854469e-01  5.1090132535668609e-01  5.1224758953827854e-01  5.1354283499203834e-01  5.1475437091253662e-01  5.1585552577860172e-01  5.1682768795958478e-01  5.1766038666712677e-01  5.1834920452916788e-01  5.1889168884116299e-01  5.1928173522815191e-01  5.1950309044746290e-01  5.1952262106494873e-01  5.1928382662499684e-01  5.1870081330068951e-01  5.1765275001092037e-01  5.1597896240612839e-01  5.1347561999383506e-01  5.0989681555878985e-01  5.0496604892850061e-01  4.9840879893209999e-01  4.9002241529181240e-01  4.7980428588682805e-01  4.6814667399413107e-01  4.5604898336081895e-01  4.4502523305073377e-01  4.3631436634981169e-01  4.3013914171132633e-01  4.2557217705335115e-01  4.2117327744247079e-01  4.1580835621000384e-01  4.1011061684503858e-01  4.0910768861962898e-01  4.2458193354382390e-01  4.5123248311629305e-01  4.6149621284911818e-01  4.4553827707657517e-01  4.2275013833446284e-01  4.1721638704866681e-01  4.2755921040917616e-01  4.4253027373773290e-01  4.5699848149054689e-01  4.6918126772292001e-01  4.7878344537595252e-01  4.8598706144444442e-01  4.9112386694137772e-01  4.9454187454090209e-01  4.9654414526905261e-01  4.9735925745028825e-01  4.9713021420609071e-01  4.9591477535904122e-01  4.9369270189452080e-01  4.9037698412743252e-01  4.8582740310533068e-01  4.7986596647465435e-01  4.7229500753875170e-01  4.6292031891277602e-01  4.5158509103638922e-01  4.3823590927896927e-01  4.2308926478800796e-01  4.0722773424344538e-01  3.9404849200629716e-01  3.9347905185305893e-01  4.2120180412821995e-01  4.7618446152910998e-01  5.3837988334282549e-01  5.8512393899132242e-01  6.0988556553185702e-01  6.1722567945156537e-01  5.0839800175996452e-01  5.0836788112412268e-01  5.0828102923495599e-01  5.0814695760910833e-01  5.0797841032036006e-01  5.0778762609346018e-01  5.0758269365484021e-01  5.0736505299548251e-01  5.0712889828910768e-01  5.0686273445801866e-01  5.0655276394015936e-01  5.0618728601864871e-01  5.0576100828239157e-01  5.0527817213911430e-01  5.0475368078079541e-01  5.0421191393021192e-01  5.0368349062766338e-01  5.0320075042627943e-01  5.0279303385562624e-01  5.0248287578905704e-01  5.0228397338262487e-01  5.0220132036615805e-01  5.0223333493851785e-01  5.0237529687149052e-01  5.0262308371148312e-01  5.0297613970658106e-01  5.0343883622819896e-01  5.0401982639438314e-01  5.0472953925622055e-01  5.0557645544248175e-01  5.0656312644387891e-01  5.0768296352887821e-01  5.0891862007321842e-01  5.1024238427623503e-01  5.1161850011026511e-01  5.1300687222631347e-01  5.1436729543827175e-01  5.1566324484595993e-01  5.1686437515683392e-01  5.1794716359307191e-01  5.1889351385861349e-01  5.1968753103157894e-01  5.2031099593073571e-01  5.2073824716498518e-01  5.2093118460646060e-01  5.2083495020136406e-01  5.2037459442695411e-01  5.1945284556461879e-01  5.1794917415187114e-01  5.1572091993097968e-01  5.1260849408916098e-01  5.0844853143137192e-01  5.0310077276494258e-01  4.9649486391489639e-01  4.8869891194454113e-01  4.7999783739052154e-01  4.7093952392614280e-01  4.6227424301826342e-01  4.5472619834182226e-01  4.4862602931302270e-01  4.4366280457189072e-01  4.3903942005655489e-01  4.3396731919025205e-01  4.2817064025457058e-01  4.2228589444383130e-01  4.1766849785683979e-01  4.1566985494130732e-01  4.1609112896328204e-01  4.1862025362247046e-01  4.2466322325034678e-01  4.3430897252501416e-01  4.4592546559341806e-01  4.5772564680898564e-01  4.6846830677485224e-01  4.7757327884972828e-01  4.8486925881491610e-01  4.9042052219633125e-01  4.9440617525108638e-01  4.9704219648735276e-01  4.9853140374075255e-01  4.9903409538185983e-01  4.9865382921257795e-01  4.9743389945947625e-01  4.9536100697071739e-01  4.9237356123583975e-01  4.8837299247864369e-01  4.8323739528770315e-01  4.7683775302615855e-01  4.6905783255853417e-01  4.5981964257484476e-01  4.4911742513792779e-01  4.3706875168222475e-01  4.2399506441323781e-01  4.1059598166733302e-01  3.9816854627566872e-01  3.8884678087012997e-01  3.8602653785034435e-01  3.9183334247409468e-01  4.0321028584065621e-01  4.1344771939905728e-01  4.1740679771312716e-01  5.0396914712784269e-01  5.0399874368288822e-01  5.0408904415792222e-01  5.0424365765881018e-01  5.0446579732512586e-01  5.0475496629063843e-01  5.0510384356041971e-01  5.0549637709919182e-01  5.0590780083478815e-01  5.0630680140218887e-01  5.0665950035861462e-01  5.0693443673967442e-01  5.0710745948977187e-01  5.0716544085446225e-01  5.0710799900370673e-01  5.0694689846185470e-01  5.0670335620751172e-01  5.0640397618874922e-01  5.0607633969977217e-01  5.0574531745566376e-01  5.0543093407565332e-01  5.05148170460