<?xml version="1.0"?>
<VTKFile type="UnstructuredGrid"  version="0.1"  >
<UnstructuredGrid>
<Piece  NumberOfPoints="20201" NumberOfCells="40000">
<Points>
<DataArray  type="Float64"  NumberOfComponents="3"  format="ascii">0 0 0  2 0 0  4 0 0  6 0 0  8 0 0  10 0 0  12 0 0  14 0 0  16 0 0  18 0 0  20 0 0  22 0 0  24 0 0  26 0 0  28 0 0  30 0 0  32 0 0  34 0 0  36 0 0  38 0 0  40 0 0  42 0 0  44 0 0  46 0 0  48 0 0  50 0 0  52 0 0  54 0 0  56 0 0  58 0 0  60 0 0  62 0 0  64 0 0  66 0 0  68 0 0  70 0 0  72 0 0  74 0 0  76 0 0  78 0 0  80 0 0  82 0 0  84 0 0  86 0 0  88 0 0  90 0 0  92 0 0  94 0 0  96 0 0  98 0 0  100 0 0  102 0 0  104 0 0  106 0 0  108 0 0  110 0 0  112 0 0  114 0 0  116 0 0  118 0 0  120 0 0  122 0 0  124 0 0  126 0 0  128 0 0  130 0 0  132 0 0  134 0 0  136 0 0  138 0 0  140 0 0  142 0 0  144 0 0  146 0 0  148 0 0  150 0 0  152 0 0  154 0 0  156 0 0  158 0 0  160 0 0  162 0 0  164 0 0  166 0 0  168 0 0  170 0 0  172 0 0  174 0 0  176 0 0  178 0 0  180 0 0  182 0 0  184 0 0  186 0 0  188 0 0  190 0 0  192 0 0  194 0 0  196 0 0  198 0 0  200 0 0  0 2 0  2 2 0  4 2 0  6 2 0  8 2 0  10 2 0  12 2 0  14 2 0  16 2 0  18 2 0  20 2 0  22 2 0  24 2 0  26 2 0  28 2 0  30 2 0  32 2 0  34 2 0  36 2 0  38 2 0  40 2 0  42 2 0  44 2 0  46 2 0  48 2 0  50 2 0  52 2 0  54 2 0  56 2 0  58 2 0  60 2 0  62 2 0  64 2 0  66 2 0  68 2 0  70 2 0  72 2 0  74 2 0  76 2 0  78 2 0  80 2 0  82 2 0  84 2 0  86 2 0  88 2 0  90 2 0  92 2 0  94 2 0  96 2 0  98 2 0  100 2 0  102 2 0  104 2 0  106 2 0  108 2 0  110 2 0  112 2 0  114 2 0  116 2 0  118 2 0  120 2 0  122 2 0  124 2 0  126 2 0  128 2 0  130 2 0  132 2 0  134 2 0  136 2 0  138 2 0  140 2 0  142 2 0  144 2 0  146 2 0  148 2 0  150 2 0  152 2 0  154 2 0  156 2 0  158 2 0  160 2 0  162 2 0  164 2 0  166 2 0  168 2 0  170 2 0  172 2 0  174 2 0  176 2 0  178 2 0  180 2 0  182 2 0  184 2 0  186 2 0  188 2 0  190 2 0  192 2 0  194 2 0  196 2 0  198 2 0  200 2 0  0 4 0  2 4 0  4 4 0  6 4 0  8 4 0  10 4 0  12 4 0  14 4 0  16 4 0  18 4 0  20 4 0  22 4 0  24 4 0  26 4 0  28 4 0  30 4 0  32 4 0  34 4 0  36 4 0  38 4 0  40 4 0  42 4 0  44 4 0  46 4 0  48 4 0  50 4 0  52 4 0  54 4 0  56 4 0  58 4 0  60 4 0  62 4 0  64 4 0  66 4 0  68 4 0  70 4 0  72 4 0  74 4 0  76 4 0  78 4 0  80 4 0  82 4 0  84 4 0  86 4 0  88 4 0  90 4 0  92 4 0  94 4 0  96 4 0  98 4 0  100 4 0  102 4 0  104 4 0  106 4 0  108 4 0  110 4 0  112 4 0  114 4 0  116 4 0  118 4 0  120 4 0  122 4 0  124 4 0  126 4 0  128 4 0  130 4 0  132 4 0  134 4 0  136 4 0  138 4 0  140 4 0  142 4 0  144 4 0  146 4 0  148 4 0  150 4 0  152 4 0  154 4 0  156 4 0  158 4 0  160 4 0  162 4 0  164 4 0  166 4 0  168 4 0  170 4 0  172 4 0  174 4 0  176 4 0  178 4 0  180 4 0  182 4 0  184 4 0  186 4 0  188 4 0  190 4 0  192 4 0  194 4 0  196 4 0  198 4 0  200 4 0  0 6 0  2 6 0  4 6 0  6 6 0  8 6 0  10 6 0  12 6 0  14 6 0  16 6 0  18 6 0  20 6 0  22 6 0  24 6 0  26 6 0  28 6 0  30 6 0  32 6 0  34 6 0  36 6 0  38 6 0  40 6 0  42 6 0  44 6 0  46 6 0  48 6 0  50 6 0  52 6 0  54 6 0  56 6 0  58 6 0  60 6 0  62 6 0  64 6 0  66 6 0  68 6 0  70 6 0  72 6 0  74 6 0  76 6 0  78 6 0  80 6 0  82 6 0  84 6 0  86 6 0  88 6 0  90 6 0  92 6 0  94 6 0  96 6 0  98 6 0  100 6 0  102 6 0  104 6 0  106 6 0  108 6 0  110 6 0  112 6 0  114 6 0  116 6 0  118 6 0  120 6 0  122 6 0  124 6 0  126 6 0  128 6 0  130 6 0  132 6 0  134 6 0  136 6 0  138 6 0  140 6 0  142 6 0  144 6 0  146 6 0  148 6 0  150 6 0  152 6 0  154 6 0  156 6 0  158 6 0  160 6 0  162 6 0  164 6 0  166 6 0  168 6 0  170 6 0  172 6 0  174 6 0  176 6 0  178 6 0  180 6 0  182 6 0  184 6 0  186 6 0  188 6 0  190 6 0  192 6 0  194 6 0  196 6 0  198 6 0  200 6 0  0 8 0  2 8 0  4 8 0  6 8 0  8 8 0  10 8 0  12 8 0  14 8 0  16 8 0  18 8 0  20 8 0  22 8 0  24 8 0  26 8 0  28 8 0  30 8 0  32 8 0  34 8 0  36 8 0  38 8 0  40 8 0  42 8 0  44 8 0  46 8 0  48 8 0  50 8 0  52 8 0  54 8 0  56 8 0  58 8 0  60 8 0  62 8 0  64 8 0  66 8 0  68 8 0  70 8 0  72 8 0  74 8 0  76 8 0  78 8 0  80 8 0  82 8 0  84 8 0  86 8 0  88 8 0  90 8 0  92 8 0  94 8 0  96 8 0  98 8 0  100 8 0  102 8 0  104 8 0  106 8 0  108 8 0  110 8 0  112 8 0  114 8 0  116 8 0  118 8 0  120 8 0  122 8 0  124 8 0  126 8 0  128 8 0  130 8 0  132 8 0  134 8 0  136 8 0  138 8 0  140 8 0  142 8 0  144 8 0  146 8 0  148 8 0  150 8 0  152 8 0  154 8 0  156 8 0  158 8 0  160 8 0  162 8 0  164 8 0  166 8 0  168 8 0  170 8 0  172 8 0  174 8 0  176 8 0  178 8 0  180 8 0  182 8 0  184 8 0  186 8 0  188 8 0  190 8 0  192 8 0  194 8 0  196 8 0  198 8 0  200 8 0  0 10 0  2 10 0  4 10 0  6 10 0  8 10 0  10 10 0  12 10 0  14 10 0  16 10 0  18 10 0  20 10 0  22 10 0  24 10 0  26 10 0  28 10 0  30 10 0  32 10 0  34 10 0  36 10 0  38 10 0  40 10 0  42 10 0  44 10 0  46 10 0  48 10 0  50 10 0  52 10 0  54 10 0  56 10 0  58 10 0  60 10 0  62 10 0  64 10 0  66 10 0  68 10 0  70 10 0  72 10 0  74 10 0  76 10 0  78 10 0  80 10 0  82 10 0  84 10 0  86 10 0  88 10 0  90 10 0  92 10 0  94 10 0  96 10 0  98 10 0  100 10 0  102 10 0  104 10 0  106 10 0  108 10 0  110 10 0  112 10 0  114 10 0  116 10 0  118 10 0  120 10 0  122 10 0  124 10 0  126 10 0  128 10 0  130 10 0  132 10 0  134 10 0  136 10 0  138 10 0  140 10 0  142 10 0  144 10 0  146 10 0  148 10 0  150 10 0  152 10 0  154 10 0  156 10 0  158 10 0  160 10 0  162 10 0  164 10 0  166 10 0  168 10 0  170 10 0  172 10 0  174 10 0  176 10 0  178 10 0  180 10 0  182 10 0  184 10 0  186 10 0  188 10 0  190 10 0  192 10 0  194 10 0  196 10 0  198 10 0  200 10 0  0 12 0  2 12 0  4 12 0  6 12 0  8 12 0  10 12 0  12 12 0  14 12 0  16 12 0  18 12 0  20 12 0  22 12 0  24 12 0  26 12 0  28 12 0  30 12 0  32 12 0  34 12 0  36 12 0  38 12 0  40 12 0  42 12 0  44 12 0  46 12 0  48 12 0  50 12 0  52 12 0  54 12 0  56 12 0  58 12 0  60 12 0  62 12 0  64 12 0  66 12 0  68 12 0  70 12 0  72 12 0  74 12 0  76 12 0  78 12 0  80 12 0  82 12 0  84 12 0  86 12 0  88 12 0  90 12 0  92 12 0  94 12 0  96 12 0  98 12 0  100 12 0  102 12 0  104 12 0  106 12 0  108 12 0  110 12 0  112 12 0  114 12 0  116 12 0  118 12 0  120 12 0  122 12 0  124 12 0  126 12 0  128 12 0  130 12 0  132 12 0  134 12 0  136 12 0  138 12 0  140 12 0  142 12 0  144 12 0  146 12 0  148 12 0  150 12 0  152 12 0  154 12 0  156 12 0  158 12 0  160 12 0  162 12 0  164 12 0  166 12 0  168 12 0  170 12 0  172 12 0  174 12 0  176 12 0  178 12 0  180 12 0  182 12 0  184 12 0  186 12 0  188 12 0  190 12 0  192 12 0  194 12 0  196 12 0  198 12 0  200 12 0  0 14 0  2 14 0  4 14 0  6 14 0  8 14 0  10 14 0  12 14 0  14 14 0  16 14 0  18 14 0  20 14 0  22 14 0  24 14 0  26 14 0  28 14 0  30 14 0  32 14 0  34 14 0  36 14 0  38 14 0  40 14 0  42 14 0  44 14 0  46 14 0  48 14 0  50 14 0  52 14 0  54 14 0  56 14 0  58 14 0  60 14 0  62 14 0  64 14 0  66 14 0  68 14 0  70 14 0  72 14 0  74 14 0  76 14 0  78 14 0  80 14 0  82 14 0  84 14 0  86 14 0  88 14 0  90 14 0  92 14 0  94 14 0  96 14 0  98 14 0  100 14 0  102 14 0  104 14 0  106 14 0  108 14 0  110 14 0  112 14 0  114 14 0  116 14 0  118 14 0  120 14 0  122 14 0  124 14 0  126 14 0  128 14 0  130 14 0  132 14 0  134 14 0  136 14 0  138 14 0  140 14 0  142 14 0  144 14 0  146 14 0  148 14 0  150 14 0  152 14 0  154 14 0  156 14 0  158 14 0  160 14 0  162 14 0  164 14 0  166 14 0  168 14 0  170 14 0  172 14 0  174 14 0  176 14 0  178 14 0  180 14 0  182 14 0  184 14 0  186 14 0  188 14 0  190 14 0  192 14 0  194 14 0  196 14 0  198 14 0  200 14 0  0 16 0  2 16 0  4 16 0  6 16 0  8 16 0  10 16 0  12 16 0  14 16 0  16 16 0  18 16 0  20 16 0  22 16 0  24 16 0  26 16 0  28 16 0  30 16 0  32 16 0  34 16 0  36 16 0  38 16 0  40 16 0  42 16 0  44 16 0  46 16 0  48 16 0  50 16 0  52 16 0  54 16 0  56 16 0  58 16 0  60 16 0  62 16 0  64 16 0  66 16 0  68 16 0  70 16 0  72 16 0  74 16 0  76 16 0  78 16 0  80 16 0  82 16 0  84 16 0  86 16 0  88 16 0  90 16 0  92 16 0  94 16 0  96 16 0  98 16 0  100 16 0  102 16 0  104 16 0  106 16 0  108 16 0  110 16 0  112 16 0  114 16 0  116 16 0  118 16 0  120 16 0  122 16 0  124 16 0  126 16 0  128 16 0  130 16 0  132 16 0  134 16 0  136 16 0  138 16 0  140 16 0  142 16 0  144 16 0  146 16 0  148 16 0  150 16 0  152 16 0  154 16 0  156 16 0  158 16 0  160 16 0  162 16 0  164 16 0  166 16 0  168 16 0  170 16 0  172 16 0  174 16 0  176 16 0  178 16 0  180 16 0  182 16 0  184 16 0  186 16 0  188 16 0  190 16 0  192 16 0  194 16 0  196 16 0  198 16 0  200 16 0  0 18 0  2 18 0  4 18 0  6 18 0  8 18 0  10 18 0  12 18 0  14 18 0  16 18 0  18 18 0  20 18 0  22 18 0  24 18 0  26 18 0  28 18 0  30 18 0  32 18 0  34 18 0  36 18 0  38 18 0  40 18 0  42 18 0  44 18 0  46 18 0  48 18 0  50 18 0  52 18 0  54 18 0  56 18 0  58 18 0  60 18 0  62 18 0  64 18 0  66 18 0  68 18 0  70 18 0  72 18 0  74 18 0  76 18 0  78 18 0  80 18 0  82 18 0  84 18 0  86 18 0  88 18 0  90 18 0  92 18 0  94 18 0  96 18 0  98 18 0  100 18 0  102 18 0  104 18 0  106 18 0  108 18 0  110 18 0  112 18 0  114 18 0  116 18 0  118 18 0  120 18 0  122 18 0  124 18 0  126 18 0  128 18 0  130 18 0  132 18 0  134 18 0  136 18 0  138 18 0  140 18 0  142 18 0  144 18 0  146 18 0  148 18 0  150 18 0  152 18 0  154 18 0  156 18 0  158 18 0  160 18 0  162 18 0  164 18 0  166 18 0  168 18 0  170 18 0  172 18 0  174 18 0  176 18 0  178 18 0  180 18 0  182 18 0  184 18 0  186 18 0  188 18 0  190 18 0  192 18 0  194 18 0  196 18 0  198 18 0  200 18 0  0 20 0  2 20 0  4 20 0  6 20 0  8 20 0  10 20 0  12 20 0  14 20 0  16 20 0  18 20 0  20 20 0  22 20 0  24 20 0  26 20 0  28 20 0  30 20 0  32 20 0  34 20 0  36 20 0  38 20 0  40 20 0  42 20 0  44 20 0  46 20 0  48 20 0  50 20 0  52 20 0  54 20 0  56 20 0  58 20 0  60 20 0  62 20 0  64 20 0  66 20 0  68 20 0  70 20 0  72 20 0  74 20 0  76 20 0  78 20 0  80 20 0  82 20 0  84 20 0  86 20 0  88 20 0  90 20 0  92 20 0  94 20 0  96 20 0  98 20 0  100 20 0  102 20 0  104 20 0  106 20 0  108 20 0  110 20 0  112 20 0  114 20 0  116 20 0  118 20 0  120 20 0  122 20 0  124 20 0  126 20 0  128 20 0  130 20 0  132 20 0  134 20 0  136 20 0  138 20 0  140 20 0  142 20 0  144 20 0  146 20 0  148 20 0  150 20 0  152 20 0  154 20 0  156 20 0
[...]
<PointData  Scalars="f_271-0"> 
<DataArray  type="Float64"  Name="f_271-0"  format="ascii">5.4337961473885110e-01  5.4288849803072481e-01  5.4144491898257985e-01  5.3913323215550069e-01  5.3607876655414544e-01  5.3242900400159332e-01  5.2833418209794725e-01  5.2393188366694987e-01  5.1933889670112765e-01  5.1465153961216792e-01  5.0995331973697278e-01  5.0532682682657681e-01  5.0086564387167087e-01  4.9668205907744900e-01  4.9290748767994280e-01  4.8968448290730393e-01  4.8715152841942738e-01  4.8542385106793329e-01  4.8457472014669634e-01  4.8462176812569602e-01  4.8552175241794532e-01  4.8717517484984535e-01  4.8943981971337813e-01  4.9215018415986039e-01  4.9513849486589473e-01  4.9825284629344890e-01  5.0136896988178892e-01  5.0439396162998662e-01  5.0726244926581499e-01  5.0992757856934079e-01  5.1235033054558710e-01  5.1449076343076949e-01  5.1630383869673169e-01  5.1774088254628403e-01  5.1875599699852482e-01  5.1931541301255624e-01  5.1940720955449082e-01  5.1904901136126991e-01  5.1829193550152153e-01  5.1721980126548939e-01  5.1594322051727626e-01  5.1458868517065803e-01  5.1328335272980952e-01  5.1213695889501087e-01  5.1122287800618738e-01  5.1056024969266134e-01  5.1009778420836149e-01  5.0969724155120322e-01  5.0911103096148502e-01  5.0794446575073438e-01  5.0558912193145789e-01  5.0110882149305902e-01  4.9305495907928210e-01  4.7924310772222412e-01  4.5787091664246832e-01  4.5426654992934912e-01  6.0250193541042940e-01  7.4497803588484246e-01  7.6889574687574869e-01  7.7249900181529974e-01  7.7169082755490248e-01  7.5323451569763800e-01  6.4628756315563962e-01  6.7583141999187946e-01  7.5036767420816042e-01  7.5834683336908115e-01  7.5856284901135151e-01  7.5767618624741073e-01  7.5610682943604601e-01  7.5317454937054773e-01  7.3853229279711841e-01  6.3057521753053647e-01  4.4780308870841690e-01  4.3326536955194367e-01  4.5649237910501517e-01  4.7352961773791030e-01  4.8434725048431604e-01  4.9099186012252466e-01  4.9494463425894153e-01  4.9716764989192691e-01  4.9822582841162577e-01  4.9837574805416224e-01  4.9763064865564760e-01  4.9580937911879269e-01  4.9257219733617297e-01  4.8744330278706027e-01  4.7981799428219141e-01  4.6895112648008103e-01  4.5393399571488607e-01  4.3390332043108149e-01  4.1358491349555632e-01  4.6551995925688056e-01  6.6703139339599915e-01  7.2939196670040707e-01  7.2676803491369191e-01  7.1808557988529531e-01  7.0944826313501985e-01  7.0187696635834262e-01  6.9599488414635180e-01  6.9226981776528151e-01  6.9099492049715761e-01  5.4235042942121159e-01  5.4187158812025726e-01  5.4046420288272456e-01  5.3821081016678773e-01  5.3523395385607964e-01  5.3167767137314192e-01  5.2768842605867261e-01  5.2339998216598815e-01  5.1892545936256063e-01  5.1435774304590431e-01  5.0977713065970842e-01  5.0526315333880301e-01  5.0090640720122814e-01  4.9681623029592364e-01  4.9312117208450817e-01  4.8996114796155327e-01  4.8747245471954015e-01  4.8576884312274099e-01  4.8492305564520660e-01  4.8495330612339599e-01  4.8581807791028142e-01  4.8742064064021423e-01  4.8962236020719291e-01  4.9226181563474769e-01  4.9517547230583675e-01  4.9821550406793158e-01  5.0126131881416502e-01  5.0422313860633516e-01  5.0703811401059085e-01  5.0966132906698280e-01  5.1205517314331017e-01  5.1418063813524162e-01  5.1599317568086012e-01  5.1744415852419878e-01  5.1848726883030938e-01  5.1908782320823310e-01  5.1923247444901222e-01  5.1893691109559770e-01  5.1824982633701577e-01  5.1725217256568246e-01  5.1605132911674256e-01  5.1477032036280468e-01  5.1353280768461418e-01  5.1244529654962634e-01  5.1157857599331091e-01  5.1095030179505130e-01  5.1050935795845342e-01  5.1012009388094315e-01  5.0954113881297158e-01  5.0838986209114323e-01  5.0608001954428705e-01  5.0171645920816521e-01  4.9392882904660795e-01  4.8068122570312671e-01  4.6019647261464114e-01  4.5030555414698664e-01  5.7030502876982103e-01  7.3272180206656190e-01  7.6694539958532493e-01  7.7190989741888916e-01  7.7041385921665884e-01  7.4480577132891390e-01  6.1589266168803392e-01  6.6013162697099448e-01  7.4770234150331549e-01  7.5788366325397161e-01  7.5831635734822889e-01  7.5739863068197688e-01  7.5572295688985558e-01  7.5222140782538927e-01  7.3248628060018717e-01  6.0469973268448662e-01  4.4016006973813682e-01  4.3510774328147550e-01  4.5786145974305825e-01  4.7431541604542637e-01  4.8480283108593186e-01  4.9126256824556114e-01  4.9510938120734660e-01  4.9726896458256092e-01  4.9828697539585592e-01  4.9841112668780535e-01  4.9765267789411588e-01  4.9583353420550030e-01  4.9262124087703046e-01  4.8755161448838041e-01  4.8003714764160210e-01  4.6935855375614649e-01  4.5464662706715298e-01  4.3506705524115913e-01  4.1406503021261648e-01  4.4951612932763141e-01  6.4337319403380988e-01  7.2529693716102406e-01  7.2652808543983627e-01  7.1853759428055497e-01  7.1017935669000387e-01  7.0281144178450161e-01  6.9708523730982219e-01  6.9346095193431823e-01  6.9222106158290053e-01  5.3934050639234044e-01  5.3889759751673150e-01  5.3759617930969850e-01  5.3551352378817163e-01  5.3276410177777833e-01  5.2948195007037357e-01  5.2580254823065098e-01  5.2184851435773416e-01  5.1772222203285623e-01  5.1350646161325075e-01  5.0927206060845542e-01  5.0508950953203591e-01  5.0104057578410588e-01  4.9722589059859218e-01  4.9376556495487317e-01  4.9079176446186540e-01  4.8843437171369131e-01  4.8680280958355249e-01  4.8596826652282621e-01  4.8595063329755694e-01  4.8671340437333344e-01  4.8816789659678261e-01  4.9018589938505985e-01  4.9261788499794212e-01  4.9531268812383877e-01  4.9813441178392343e-01  5.0097324435384827e-01  5.0374860678637734e-01  5.0640510562184682e-01  5.0890358214934894e-01  5.1121063271520950e-01  5.1329005721512699e-01  5.1509880062128166e-01  5.1658841091484675e-01  5.1771136136673612e-01  5.1843029657813422e-01  5.1872768836950112e-01  5.1861354645095414e-01  5.1812945909822083e-01  5.1734798490104028e-01  5.1636705212953449e-01  5.1529956066080551e-01  5.1425897356729644e-01  5.1334237361809909e-01  5.1261299095282897e-01  5.1208409075084471e-01  5.1170491244760374e-01  5.1134703248861113e-01  5.1078653328802770e-01  5.0967444410150875e-01  5.0748576239841858e-01  5.0343661193325095e-01  4.9636317412702724e-01  4.8460570635474198e-01  4.6655107189279194e-01  4.4833186008245102e-01  4.9505464793481624e-01  6.6710302174151592e-01  7.5005082227474207e-01  7.6472911354722717e-01  7.5875961686056859e-01  6.9591320463088058e-01  5.2221429198208957e-01  6.0170638915758545e-01  7.3459245957445463e-01  7.5564475237974082e-01  7.5742133124061362e-01  7.5645087164688074e-01  7.5406601686014485e-01  7.4697428552935696e-01  7.0102362487886849e-01  5.2823366191712995e-01  4.2867041818930218e-01  4.4063269899113278e-01  4.6166205348717193e-01  4.7652632075563989e-01  4.8610011787128188e-01  4.9204266318158213e-01  4.9559069949612494e-01  4.9757034684355478e-01  4.9847389674128789e-01  4.9852444954152553e-01  4.9772798710090121e-01  4.9591539859856731e-01  4.9277518319973235e-01  4.8787620369556672e-01  4.8067920278278237e-01  4.7053606066391657e-01  4.5668411612077175e-01  4.3836984459965966e-01  4.1696302129454837e-01  4.1977611147318455e-01  5.5927712358370918e-01  7.0144845952681634e-01  7.2375734579895534e-01  7.1935147900032248e-01  7.1213840817397034e-01  7.0544205426059403e-01  7.0020417283500569e-01  6.9689005653028346e-01  6.9575715923937254e-01  5.3457640893068681e-01  5.3419049816923136e-01  5.3305723693856522e-01  5.3124572732713526e-01  5.2885788425578062e-01  5.2601213790111501e-01  5.2282674600492240e-01  5.1940674398961051e-01  5.1583743186508035e-01  5.1218544001667876e-01  5.0850633944986356e-01  5.0485600320589408e-01  5.0130192433309917e-01  4.9793069985760735e-01  4.9484890079222382e-01  4.9217631404173906e-01  4.9003261165578488e-01  4.8852033336865863e-01  4.8770816859049210e-01  4.8761859201726654e-01  4.8822291803667273e-01  4.8944505460536097e-01  4.9117313188629524e-01  4.9327631024754365e-01  4.9562292126409691e-01  4.9809595019951819e-01  5.0060274383966619e-01  5.0307746708588930e-01  5.0547677858783546e-01  5.0777091646014572e-01  5.0993341657038360e-01  5.1193276789454456e-01  5.1372846526677163e-01  5.1527245256206189e-01  5.1651534307299496e-01  5.1741555189026800e-01  5.1794889580484593e-01  5.1811634092206438e-01  5.1794817768703083e-01  5.1750364997109477e-01  5.1686573664565627e-01  5.1613136553037853e-01  5.1539794040854370e-01  5.1474770536518888e-01  5.1423193317761640e-01  5.1385678647898403e-01  5.1357161168587895e-01  5.1325840336694384e-01  5.1271872037363619e-01  5.1165229124083500e-01  5.0962089877815631e-01  5.0599318101067536e-01  4.9987448695585712e-01  4.9006351247424990e-01  4.7530545862291773e-01  4.5662380655573015e-01  4.5022760195777167e-01  5.1876155936583768e-01  6.4184154407929550e-01  6.9326038074012719e-01  6.6738133338037686e-01  5.4528965452616196e-01  4.2988510335258800e-01  4.9480707660384193e-01  6.7668332752405935e-01  7.4259678713693111e-01  7.5247976366209979e-01  7.5194648108741657e-01  7.4514753045758553e-01  7.1519425440192386e-01  5.9768209633940594e-01  4.4958288674973090e-01  4.2943380976253615e-01  4.4904806763841482e-01  4.6713539686167366e-01  4.7978398606325873e-01  4.8805631293084217e-01  4.9324719766230390e-01  4.9635459833715501e-01  4.9806580946543133e-01  4.9879710197157950e-01  4.9873642679722174e-01  4.9788292265765371e-01  4.9608184191840465e-01  4.9305381911454743e-01  4.8841737512535160e-01  4.8170393379740217e-01  4.7236591025105906e-01  4.5978473283798804e-01  4.4334306138763874e-01  4.2321842134595739e-01  4.0686372307941115e-01  4.4740875008772452e-01  6.0623695172803804e-01  7.0038142978695517e-01  7.1596580005750665e-01  7.1366991173806182e-01  7.0892524583718197e-01  7.0475887752847521e-01  7.0204408742454372e-01  7.0110725532745055e-01  5.2841518480555993e-01  5.2810330555498453e-01  5.2718858029005278e-01  5.2572984744785745e-01  5.2381319444797192e-01  5.2153727415134998e-01  5.1899836069102145e-01  5.1627883678957975e-01  5.1344176779489259e-01  5.1053250569012920e-01  5.0758634709504025e-01  5.0463964168508302e-01  5.0174082171478307e-01  4.9895783001241978e-01  4.9637936234479246e-01  4.9410897534777692e-01  4.9225302479766830e-01  4.9090509057448578e-01  4.9013056311751163e-01  4.8995513410645047e-01  4.9036002763108527e-01  4.9128516578573739e-01  4.9263952000375871e-01  4.9431616909439169e-01  4.9620851712647474e-01  4.9822398729543876e-01  5.0029231911128769e-01  5.0236712044911336e-01  5.0442114003030269e-01  5.0643733330687635e-01  5.0839876255204386e-01  5.1028045458216731e-01  5.1204555355434167e-01  5.1364672804139233e-01  5.1503226751063003e-01  5.1615509382682934e-01  5.1698232524885102e-01  5.1750311264661442e-01  5.1773302947354805e-01  5.1771404520884934e-01  5.1750982761107256e-01  5.1719675265227383e-01  5.1685161251822420e-01  5.1653760218449141e-01  5.1629054408188269e-01  5.1610714193504026e-01  5.1593607827678667e-01  5.1567105620678699e-01  5.1514294917221692e-01  5.1410693253363782e-01  5.1222090013941513e-01  5.0901499609387479e-01  5.0386142161759528e-01  4.9597734957060702e-01  4.8456840699419174e-01  4.6948098074475975e-01  4.5355699730059906e-01  4.4763502374593617e-01  4.6843978751011051e-01  4.9083756179348637e-01  4.7176963738000921e-01  4.2943158756429989e-01  4.0733808338127653e-01  4.2033413416978010e-01  5.2079928919901475e-01  6.5024945353819652e-01  7.0114370532526715e-01  7.0447447791645545e-01  6.7133161125828245e-01  5.7597076718786622e-01  4.5914545649378857e-01  4.2655780580697561e-01  4.4046102007507598e-01  4.5883950162618425e-01  4.7338425565081227e-01  4.8362086571515306e-01  4.9043766067848188e-01  4.9476629013367196e-01  4.9735812598505741e-01  4.9875013355990944e-01  4.9927403902770645e-01  4.9907874000839142e-01  4.9815712264170975e-01  4.9637329250222684e-01  4.9348774401956280e-01  4.8917889753215732e-01  4.8306056644688994e-01  4.7469675591892835e-01  4.6361954029709851e-01  4.4937731920781959e-01  4.3177623045144287e-01  4.1240230251738091e-01  4.0196381133351278e-01  4.4806609150924315e-01  5.7610921105645496e-01  6.6783047733266621e-01  6.9904938337386746e-01  7.0614389576301739e-01  7.0658503367624992e-01  7.0576409604527013e-01  7.0535802965140570e-01  5.2131542471940628e-01  5.2108952274323928e-01  5.2042878983136720e-01  5.1938067496328288e-01  5.1801361628200759e-01  5.1640404752487679e-01  5.1462329291123410e-01  5.1272769837149390e-01  5.1075440278282358e-01  5.0872358806169626e-01  5.0664628848426896e-01  5.0453534721607673e-01  5.0241626107981585e-01  5.0033466502934398e-01  4.9835807232717477e-01  4.9657098606130218e-01  4.9506424803210031e-01  4.9392103678763633e-01  4.9320285923948048e-01  4.9293894893233076e-01  4.9312166595409962e-01  4.9370900275571833e-01  4.9463353056244014e-01  4.9581553923595628e-01  4.9717714285371262e-01  4.9865399381743780e-01  5.0020199092815532e-01  5.0179776948370536e-01  5.0343343668562845e-01  5.0510750577763919e-01  5.0681488549600962e-01  5.0853886614580168e-01  5.1024731864789907e-01  5.1189403611921203e-01  5.1342470610427238e-01  5.1478583225911834e-01  5.1593432300221298e-01  5.1684550012480146e-01  5.1751780232104871e-01  5.1797320942668423e-01  5.1825317695100626e-01  5.1841056079481984e-01  5.1849863649174155e-01  5.1855885220013376e-01  5.1860924467870539e-01  5.1863523934611744e-01  5.1858367301109087e-01  5.1835942829469195e-01  5.1782254076552203e-01  5.1678283620063215e-01  5.1499004021192130e-01  5.1212092697854994e-01  5.0777271847468219e-01  5.0148552625327236e-01  4.9283904070641593e-01  4.8170351696865976e-01  4.6872465160058097e-01  4.5587169542971634e-01  4.4567508599531475e-01  4.3879468843434555e-01  4.3257260786607621e-01  4.2625710269729028e-01  4.1980309723085174e-01  4.1499624057148016e-01  4.2302402227731467e-01  4.6123302004135808e-01  5.0385552822663537e-01  5.0965613523127584e-01  4.7595815297061272e-01  4.3646687792000799e-01  4.2606827366417122e-01  4.3780630893579731e-01  4.5408357164751789e-01  4.6853312382205170e-01  4.7965123612936117e-01  4.8762021507595754e-01  4.9302737018539006e-01  4.9649724797621436e-01  4.9856342289052824e-01  4.9962334442984413e-01  4.9992814099661986e-01  4.9958984840517839e-01  4.9859755530359001e-01  4.9683753135650488e-01  4.9411413764062190e-01  4.9016959376265218e-01  4.8470211329869095e-01  4.7738381342953423e-01  4.6788268472613703e-01  4.5589959230891969e-01  4.4126001727287389e-01  4.2421113075543848e-01  4.0668589512977477e-01  3.9596877756536830e-01  4.1547422699586356e-01  4.8528924818045094e-01  5.7361120649519748e-01  6.3099628556003184e-01  6.5772973661362899e-01  6.6885333090903298e-01  6.7192762236866543e-01  5.1380031212346944e-01  5.1366665234171038e-01  5.1327867511153724e-01  5.1267231090279075e-01  5.1189802849002464e-01  5.1100940840241571e-01  5.1005176278060937e-01  5.0905384167599299e-01  5.0802480241364378e-01  5.0695718344781526e-01  5.0583500836793838e-01  5.0464477453240786e-01  5.0338630566303433e-01  5.0208046287109453e-01  5.0077150689771532e-01  4.9952328038846522e-01  4.9840997928281089e-01  4.9750369327025190e-01  4.9686174877819206e-01  4.9651695868213208e-01  4.9647314952043498e-01  4.9670699024213955e-01  4.9717554020050470e-01  4.9782749118923575e-01  4.9861517783581888e-01  4.9950430619177577e-01  5.0047902750182671e-01  5.0154127364242362e-01  5.0270481911765486e-01  5.0398591962488037e-01  5.0539322460476876e-01  5.0691975071899231e-01  5.0853903464893169e-01  5.1020637776031263e-01  5.1186472327304078e-01  5.1345356592090685e-01  5.1491867291402627e-01  5.1622038267746817e-01  5.1733873310906286e-01  5.1827442911310417e-01  5.1904547500129061e-01  5.1968004760801334e-01  5.2020682718328104e-01  5.2064448765129934e-01  5.2099225137119698e-01  5.2122315760765869e-01  5.2128087366002129e-01  5.2107961820616300e-01  5.2050550098463111e-01  5.1941699448104584e-01  5.1764310830706728e-01  5.1498078029755678e-01  5.1119831201757304e-01  5.0605878847043206e-01  4.9938370584519648e-01  4.9117438483241904e-01  4.8177785670378609e-01  4.7198786089709338e-01  4.6289075151263742e-01  4.5533269013806349e-01  4.4935872092584173e-01  4.4406055010585138e-01  4.3831855349791859e-01  4.3177448499913640e-01  4.2556865971078911e-01  4.2202476814335582e-01  4.2235601975240566e-01  4.2326084925783103e-01  4.2441111918068136e-01  4.3026473136575238e-01  4.4116640702461174e-01  4.5414766326406075e-01  4.6663230836470471e-01  4.7720227836685214e-01  4.8545425890409311e-01  4.9149912247073879e-01  4.9567257696184802e-01  4.9836846814645691e-01  4.9994805487837674e-01  5.0069308498291132e-01  5.0078633236737868e-01  5.0030940207956820e-01  4.9925111815998413e-01  4.9752184412168243e-01  4.9497041284578691e-01  4.9140152442340651e-01  4.8659284409235937e-01  4.8031268771790658e-01  4.7234104791634757e-01  4.6249889759964019e-01  4.5069412654060753e-01  4.3700691856461926e-01  4.2186269619126265e-01  4.0652630428577913e-01  3.9388215683878042e-01  3.9058143286564412e-01  4.0436014924888342e-01  4.3121735223045232e-01  4.5883264556543985e-01  4.7827025674381679e-01  4.8519236021741002e-01  5.0641577549732664e-01  5.0637483072754064e-01  5.0626131303464750e-01  5.0610041279296880e-01  5.0592568850344632e-01  5.0576891722092521e-01  5.0565014749398607e-01  5.0557076054144900e-01  5.0551154115077979e-01  5.0543642052912030e-01  5.0530104411798726e-01  5.0506403792152887e-01  5.0469812744579134e-01  5.0419828356659613e-01  5.0358481774195929e-01  5.0290062846113159e-01  5.0220328186488328e-01  5.0155391234928215e-01  5.0100571958815610e-01  5.0059491318467997e-01  5.0033629515625988e-01  5.0022444463962745e-01  5.0023999830065013e-01  5.0035919014695773e-01  5.0056397673777508e-01  5.0084994980934361e-01  5.0122985971897882e-01  5.0173177121746781e-01  5.0239232278133550e-01  5.0324686783211570e-01  5.0431908596179542e-01  5.0561275062017130e-01  5.0710771648831376e-01  5.0876104259149368e-01  5.1051283908748391e-01  5.1229529288615383e-01  5.1404267611517240e-01  5.1570008254144339e-01  5.1722909396954819e-01  5.1860935323122548e-01  5.1983589503896521e-01  5.2091290126873346e-01  5.2184521218573021e-01  5.2262936927020320e-01  5.2324608970853204e-01  5.2365576096300237e-01  5.2379774756531594e-01  5.2359315172170673e-01  5.2294953295834479e-01  5.2176552744484350e-01  5.1993389712679516e-01  5.1734363882178014e-01  5.1388520535203319e-01  5.0946647798422984e-01  5.0404817092737575e-01  4.9770105734594428e-01  4.9066774390847462e-01  4.8338075815011872e-01  4.7637077516181608e-01  4.7005086542957625e-01  4.6448902958065608e-01  4.5937891448587059e-01  4.5428435947437446e-01  4.4901428508092917e-01  4.4389091075703202e-01  4.3976127274871857e-01  4.3768528385500632e-01  4.3857599988920348e-01  4.4276473520781434e-01  4.4980752562692694e-01  4.5867496671868307e-01  4.6808372923230523e-01  4.7693017395186432e-01  4.8452848229250456e-01  4.9059307791546491e-01  4.9512752157179318e-01  4.9830055595986045e-01  5.0034865063242917e-01  5.0150817666391234e-01  5.0197341619288172e-01  5.0187476027876776e-01  5.0127179709401104e-01  5.0015676529733055e-01  4.9846459286478750e-01  4.9608643959411747e-01  4.9288449802397410e-01  4.8870692088639417e-01  4.8340308642688734e-01  4.7684071914434933e-01  4.6892720198236759e-01  4.5963738573793317e-01  4.4904898773910995e-01  4.3738840593928352e-01  4.2508365703341600e-01  4.1285948447250664e-01  4.0177553838057273e-01  3.9307451508345254e-01  3.8781786847322108e-01  3.8586751408865672e-01  3.8577919023450769e-01  3.8596998140405975e-01  4.9968721175500358e-01  4.9973400193231060e-01  4.9988054067602888e-01  5.0014278256436417e-01  5.0053955394911553e-01  5.0108327522831886e-01  5.0177103031573411e-01  5.0257865306804927e-01  5.0345972785438653e-01  5.0435011397768159e-01  5.0517715248979345e-01  5.0587148563990780e-01  5.0637873238084752e-01  5.0666828817536158e-01  5.0673723690837613e-01  5.0660858361811900e-01  5.0632442288780644e-01  5.0593589162387254e-01  5.0549250628353171e-01  5.0503356581691650e-01  5.0458369399654202e-01  5.04153454892