<?xml version="1.0"?>
<VTKFile type="UnstructuredGrid"  version="0.1"  >
<UnstructuredGrid>
<Piece  NumberOfPoints="20201" NumberOfCells="40000">
<Points>
<DataArray  type="Float64"  NumberOfComponents="3"  format="ascii">0 0 0  2 0 0  4 0 0  6 0 0  8 0 0  10 0 0  12 0 0  14 0 0  16 0 0  18 0 0  20 0 0  22 0 0  24 0 0  26 0 0  28 0 0  30 0 0  32 0 0  34 0 0  36 0 0  38 0 0  40 0 0  42 0 0  44 0 0  46 0 0  48 0 0  50 0 0  52 0 0  54 0 0  56 0 0  58 0 0  60 0 0  62 0 0  64 0 0  66 0 0  68 0 0  70 0 0  72 0 0  74 0 0  76 0 0  78 0 0  80 0 0  82 0 0  84 0 0  86 0 0  88 0 0  90 0 0  92 0 0  94 0 0  96 0 0  98 0 0  100 0 0  102 0 0  104 0 0  106 0 0  108 0 0  110 0 0  112 0 0  114 0 0  116 0 0  118 0 0  120 0 0  122 0 0  124 0 0  126 0 0  128 0 0  130 0 0  132 0 0  134 0 0  136 0 0  138 0 0  140 0 0  142 0 0  144 0 0  146 0 0  148 0 0  150 0 0  152 0 0  154 0 0  156 0 0  158 0 0  160 0 0  162 0 0  164 0 0  166 0 0  168 0 0  170 0 0  172 0 0  174 0 0  176 0 0  178 0 0  180 0 0  182 0 0  184 0 0  186 0 0  188 0 0  190 0 0  192 0 0  194 0 0  196 0 0  198 0 0  200 0 0  0 2 0  2 2 0  4 2 0  6 2 0  8 2 0  10 2 0  12 2 0  14 2 0  16 2 0  18 2 0  20 2 0  22 2 0  24 2 0  26 2 0  28 2 0  30 2 0  32 2 0  34 2 0  36 2 0  38 2 0  40 2 0  42 2 0  44 2 0  46 2 0  48 2 0  50 2 0  52 2 0  54 2 0  56 2 0  58 2 0  60 2 0  62 2 0  64 2 0  66 2 0  68 2 0  70 2 0  72 2 0  74 2 0  76 2 0  78 2 0  80 2 0  82 2 0  84 2 0  86 2 0  88 2 0  90 2 0  92 2 0  94 2 0  96 2 0  98 2 0  100 2 0  102 2 0  104 2 0  106 2 0  108 2 0  110 2 0  112 2 0  114 2 0  116 2 0  118 2 0  120 2 0  122 2 0  124 2 0  126 2 0  128 2 0  130 2 0  132 2 0  134 2 0  136 2 0  138 2 0  140 2 0  142 2 0  144 2 0  146 2 0  148 2 0  150 2 0  152 2 0  154 2 0  156 2 0  158 2 0  160 2 0  162 2 0  164 2 0  166 2 0  168 2 0  170 2 0  172 2 0  174 2 0  176 2 0  178 2 0  180 2 0  182 2 0  184 2 0  186 2 0  188 2 0  190 2 0  192 2 0  194 2 0  196 2 0  198 2 0  200 2 0  0 4 0  2 4 0  4 4 0  6 4 0  8 4 0  10 4 0  12 4 0  14 4 0  16 4 0  18 4 0  20 4 0  22 4 0  24 4 0  26 4 0  28 4 0  30 4 0  32 4 0  34 4 0  36 4 0  38 4 0  40 4 0  42 4 0  44 4 0  46 4 0  48 4 0  50 4 0  52 4 0  54 4 0  56 4 0  58 4 0  60 4 0  62 4 0  64 4 0  66 4 0  68 4 0  70 4 0  72 4 0  74 4 0  76 4 0  78 4 0  80 4 0  82 4 0  84 4 0  86 4 0  88 4 0  90 4 0  92 4 0  94 4 0  96 4 0  98 4 0  100 4 0  102 4 0  104 4 0  106 4 0  108 4 0  110 4 0  112 4 0  114 4 0  116 4 0  118 4 0  120 4 0  122 4 0  124 4 0  126 4 0  128 4 0  130 4 0  132 4 0  134 4 0  136 4 0  138 4 0  140 4 0  142 4 0  144 4 0  146 4 0  148 4 0  150 4 0  152 4 0  154 4 0  156 4 0  158 4 0  160 4 0  162 4 0  164 4 0  166 4 0  168 4 0  170 4 0  172 4 0  174 4 0  176 4 0  178 4 0  180 4 0  182 4 0  184 4 0  186 4 0  188 4 0  190 4 0  192 4 0  194 4 0  196 4 0  198 4 0  200 4 0  0 6 0  2 6 0  4 6 0  6 6 0  8 6 0  10 6 0  12 6 0  14 6 0  16 6 0  18 6 0  20 6 0  22 6 0  24 6 0  26 6 0  28 6 0  30 6 0  32 6 0  34 6 0  36 6 0  38 6 0  40 6 0  42 6 0  44 6 0  46 6 0  48 6 0  50 6 0  52 6 0  54 6 0  56 6 0  58 6 0  60 6 0  62 6 0  64 6 0  66 6 0  68 6 0  70 6 0  72 6 0  74 6 0  76 6 0  78 6 0  80 6 0  82 6 0  84 6 0  86 6 0  88 6 0  90 6 0  92 6 0  94 6 0  96 6 0  98 6 0  100 6 0  102 6 0  104 6 0  106 6 0  108 6 0  110 6 0  112 6 0  114 6 0  116 6 0  118 6 0  120 6 0  122 6 0  124 6 0  126 6 0  128 6 0  130 6 0  132 6 0  134 6 0  136 6 0  138 6 0  140 6 0  142 6 0  144 6 0  146 6 0  148 6 0  150 6 0  152 6 0  154 6 0  156 6 0  158 6 0  160 6 0  162 6 0  164 6 0  166 6 0  168 6 0  170 6 0  172 6 0  174 6 0  176 6 0  178 6 0  180 6 0  182 6 0  184 6 0  186 6 0  188 6 0  190 6 0  192 6 0  194 6 0  196 6 0  198 6 0  200 6 0  0 8 0  2 8 0  4 8 0  6 8 0  8 8 0  10 8 0  12 8 0  14 8 0  16 8 0  18 8 0  20 8 0  22 8 0  24 8 0  26 8 0  28 8 0  30 8 0  32 8 0  34 8 0  36 8 0  38 8 0  40 8 0  42 8 0  44 8 0  46 8 0  48 8 0  50 8 0  52 8 0  54 8 0  56 8 0  58 8 0  60 8 0  62 8 0  64 8 0  66 8 0  68 8 0  70 8 0  72 8 0  74 8 0  76 8 0  78 8 0  80 8 0  82 8 0  84 8 0  86 8 0  88 8 0  90 8 0  92 8 0  94 8 0  96 8 0  98 8 0  100 8 0  102 8 0  104 8 0  106 8 0  108 8 0  110 8 0  112 8 0  114 8 0  116 8 0  118 8 0  120 8 0  122 8 0  124 8 0  126 8 0  128 8 0  130 8 0  132 8 0  134 8 0  136 8 0  138 8 0  140 8 0  142 8 0  144 8 0  146 8 0  148 8 0  150 8 0  152 8 0  154 8 0  156 8 0  158 8 0  160 8 0  162 8 0  164 8 0  166 8 0  168 8 0  170 8 0  172 8 0  174 8 0  176 8 0  178 8 0  180 8 0  182 8 0  184 8 0  186 8 0  188 8 0  190 8 0  192 8 0  194 8 0  196 8 0  198 8 0  200 8 0  0 10 0  2 10 0  4 10 0  6 10 0  8 10 0  10 10 0  12 10 0  14 10 0  16 10 0  18 10 0  20 10 0  22 10 0  24 10 0  26 10 0  28 10 0  30 10 0  32 10 0  34 10 0  36 10 0  38 10 0  40 10 0  42 10 0  44 10 0  46 10 0  48 10 0  50 10 0  52 10 0  54 10 0  56 10 0  58 10 0  60 10 0  62 10 0  64 10 0  66 10 0  68 10 0  70 10 0  72 10 0  74 10 0  76 10 0  78 10 0  80 10 0  82 10 0  84 10 0  86 10 0  88 10 0  90 10 0  92 10 0  94 10 0  96 10 0  98 10 0  100 10 0  102 10 0  104 10 0  106 10 0  108 10 0  110 10 0  112 10 0  114 10 0  116 10 0  118 10 0  120 10 0  122 10 0  124 10 0  126 10 0  128 10 0  130 10 0  132 10 0  134 10 0  136 10 0  138 10 0  140 10 0  142 10 0  144 10 0  146 10 0  148 10 0  150 10 0  152 10 0  154 10 0  156 10 0  158 10 0  160 10 0  162 10 0  164 10 0  166 10 0  168 10 0  170 10 0  172 10 0  174 10 0  176 10 0  178 10 0  180 10 0  182 10 0  184 10 0  186 10 0  188 10 0  190 10 0  192 10 0  194 10 0  196 10 0  198 10 0  200 10 0  0 12 0  2 12 0  4 12 0  6 12 0  8 12 0  10 12 0  12 12 0  14 12 0  16 12 0  18 12 0  20 12 0  22 12 0  24 12 0  26 12 0  28 12 0  30 12 0  32 12 0  34 12 0  36 12 0  38 12 0  40 12 0  42 12 0  44 12 0  46 12 0  48 12 0  50 12 0  52 12 0  54 12 0  56 12 0  58 12 0  60 12 0  62 12 0  64 12 0  66 12 0  68 12 0  70 12 0  72 12 0  74 12 0  76 12 0  78 12 0  80 12 0  82 12 0  84 12 0  86 12 0  88 12 0  90 12 0  92 12 0  94 12 0  96 12 0  98 12 0  100 12 0  102 12 0  104 12 0  106 12 0  108 12 0  110 12 0  112 12 0  114 12 0  116 12 0  118 12 0  120 12 0  122 12 0  124 12 0  126 12 0  128 12 0  130 12 0  132 12 0  134 12 0  136 12 0  138 12 0  140 12 0  142 12 0  144 12 0  146 12 0  148 12 0  150 12 0  152 12 0  154 12 0  156 12 0  158 12 0  160 12 0  162 12 0  164 12 0  166 12 0  168 12 0  170 12 0  172 12 0  174 12 0  176 12 0  178 12 0  180 12 0  182 12 0  184 12 0  186 12 0  188 12 0  190 12 0  192 12 0  194 12 0  196 12 0  198 12 0  200 12 0  0 14 0  2 14 0  4 14 0  6 14 0  8 14 0  10 14 0  12 14 0  14 14 0  16 14 0  18 14 0  20 14 0  22 14 0  24 14 0  26 14 0  28 14 0  30 14 0  32 14 0  34 14 0  36 14 0  38 14 0  40 14 0  42 14 0  44 14 0  46 14 0  48 14 0  50 14 0  52 14 0  54 14 0  56 14 0  58 14 0  60 14 0  62 14 0  64 14 0  66 14 0  68 14 0  70 14 0  72 14 0  74 14 0  76 14 0  78 14 0  80 14 0  82 14 0  84 14 0  86 14 0  88 14 0  90 14 0  92 14 0  94 14 0  96 14 0  98 14 0  100 14 0  102 14 0  104 14 0  106 14 0  108 14 0  110 14 0  112 14 0  114 14 0  116 14 0  118 14 0  120 14 0  122 14 0  124 14 0  126 14 0  128 14 0  130 14 0  132 14 0  134 14 0  136 14 0  138 14 0  140 14 0  142 14 0  144 14 0  146 14 0  148 14 0  150 14 0  152 14 0  154 14 0  156 14 0  158 14 0  160 14 0  162 14 0  164 14 0  166 14 0  168 14 0  170 14 0  172 14 0  174 14 0  176 14 0  178 14 0  180 14 0  182 14 0  184 14 0  186 14 0  188 14 0  190 14 0  192 14 0  194 14 0  196 14 0  198 14 0  200 14 0  0 16 0  2 16 0  4 16 0  6 16 0  8 16 0  10 16 0  12 16 0  14 16 0  16 16 0  18 16 0  20 16 0  22 16 0  24 16 0  26 16 0  28 16 0  30 16 0  32 16 0  34 16 0  36 16 0  38 16 0  40 16 0  42 16 0  44 16 0  46 16 0  48 16 0  50 16 0  52 16 0  54 16 0  56 16 0  58 16 0  60 16 0  62 16 0  64 16 0  66 16 0  68 16 0  70 16 0  72 16 0  74 16 0  76 16 0  78 16 0  80 16 0  82 16 0  84 16 0  86 16 0  88 16 0  90 16 0  92 16 0  94 16 0  96 16 0  98 16 0  100 16 0  102 16 0  104 16 0  106 16 0  108 16 0  110 16 0  112 16 0  114 16 0  116 16 0  118 16 0  120 16 0  122 16 0  124 16 0  126 16 0  128 16 0  130 16 0  132 16 0  134 16 0  136 16 0  138 16 0  140 16 0  142 16 0  144 16 0  146 16 0  148 16 0  150 16 0  152 16 0  154 16 0  156 16 0  158 16 0  160 16 0  162 16 0  164 16 0  166 16 0  168 16 0  170 16 0  172 16 0  174 16 0  176 16 0  178 16 0  180 16 0  182 16 0  184 16 0  186 16 0  188 16 0  190 16 0  192 16 0  194 16 0  196 16 0  198 16 0  200 16 0  0 18 0  2 18 0  4 18 0  6 18 0  8 18 0  10 18 0  12 18 0  14 18 0  16 18 0  18 18 0  20 18 0  22 18 0  24 18 0  26 18 0  28 18 0  30 18 0  32 18 0  34 18 0  36 18 0  38 18 0  40 18 0  42 18 0  44 18 0  46 18 0  48 18 0  50 18 0  52 18 0  54 18 0  56 18 0  58 18 0  60 18 0  62 18 0  64 18 0  66 18 0  68 18 0  70 18 0  72 18 0  74 18 0  76 18 0  78 18 0  80 18 0  82 18 0  84 18 0  86 18 0  88 18 0  90 18 0  92 18 0  94 18 0  96 18 0  98 18 0  100 18 0  102 18 0  104 18 0  106 18 0  108 18 0  110 18 0  112 18 0  114 18 0  116 18 0  118 18 0  120 18 0  122 18 0  124 18 0  126 18 0  128 18 0  130 18 0  132 18 0  134 18 0  136 18 0  138 18 0  140 18 0  142 18 0  144 18 0  146 18 0  148 18 0  150 18 0  152 18 0  154 18 0  156 18 0  158 18 0  160 18 0  162 18 0  164 18 0  166 18 0  168 18 0  170 18 0  172 18 0  174 18 0  176 18 0  178 18 0  180 18 0  182 18 0  184 18 0  186 18 0  188 18 0  190 18 0  192 18 0  194 18 0  196 18 0  198 18 0  200 18 0  0 20 0  2 20 0  4 20 0  6 20 0  8 20 0  10 20 0  12 20 0  14 20 0  16 20 0  18 20 0  20 20 0  22 20 0  24 20 0  26 20 0  28 20 0  30 20 0  32 20 0  34 20 0  36 20 0  38 20 0  40 20 0  42 20 0  44 20 0  46 20 0  48 20 0  50 20 0  52 20 0  54 20 0  56 20 0  58 20 0  60 20 0  62 20 0  64 20 0  66 20 0  68 20 0  70 20 0  72 20 0  74 20 0  76 20 0  78 20 0  80 20 0  82 20 0  84 20 0  86 20 0  88 20 0  90 20 0  92 20 0  94 20 0  96 20 0  98 20 0  100 20 0  102 20 0  104 20 0  106 20 0  108 20 0  110 20 0  112 20 0  114 20 0  116 20 0  118 20 0  120 20 0  122 20 0  124 20 0  126 20 0  128 20 0  130 20 0  132 20 0  134 20 0  136 20 0  138 20 0  140 20 0  142 20 0  144 20 0  146 20 0  148 20 0  150 20 0  152 20 0  154 20 0  156 20 0
[...]
<PointData  Scalars="f_271-0"> 
<DataArray  type="Float64"  Name="f_271-0"  format="ascii">6.0656596017561770e-01  6.0394899202175822e-01  5.9664027060155012e-01  5.8603386538267599e-01  5.7383633240021847e-01  5.6154778944677219e-01  5.5018402660320531e-01  5.4023071869600692e-01  5.3169656716116998e-01  5.2417932538564083e-01  5.1696935941385225e-01  5.0925501910841475e-01  5.0042545848658204e-01  4.9036508618105401e-01  4.7960176211818600e-01  4.6923423893649091e-01  4.6066436746553335e-01  4.5523043541665220e-01  4.5385858636996046e-01  4.5682951180468390e-01  4.6371362878435168e-01  4.7347688707340757e-01  4.8471754019174251e-01  4.9597005036171427e-01  5.0600455369770758e-01  5.1405506830093028e-01  5.1992574801795188e-01  5.2395177275048499e-01  5.2682612243130400e-01  5.2933718882877290e-01  5.3208570875925842e-01  5.3525761928782922e-01  5.3852319113711944e-01  5.4111569805218218e-01  5.4211017576450293e-01  5.4085296775570180e-01  5.3736522494632222e-01  5.3240687973460421e-01  5.2693883771097372e-01  5.2120495329937000e-01  5.1437139271572263e-01  5.0555758410261342e-01  4.9543386873674089e-01  4.8633585028506104e-01  4.8063676867664851e-01  4.7925425639185065e-01  4.8149240704647750e-01  4.8582056769012982e-01  4.9073781932312643e-01  4.9528856826773349e-01  4.9921110253484285e-01  5.0283584880680987e-01  5.0682887653556496e-01  5.1183492891360327e-01  5.1804359404833611e-01  5.2465192841017760e-01  5.2912375467191308e-01  5.2686103160588327e-01  5.2860785761971152e-01  6.4800351198503270e-01  8.0185878261386556e-01  8.0470022012140885e-01  6.4810804954666323e-01  5.2132696694774272e-01  6.8996769619050902e-01  7.6895708401317153e-01  7.7354299758665901e-01  7.7186040882371709e-01  7.4016327084630806e-01  5.7603725155729357e-01  4.8696718245108583e-01  5.0267212205046130e-01  5.1587580230434515e-01  5.1840995907125031e-01  5.1463928491296451e-01  5.0790860536989757e-01  5.0062336461734602e-01  4.9460117108187013e-01  4.9111945857357647e-01  4.9083043346789973e-01  4.9370240849288893e-01  4.9906935311364437e-01  5.0580412963473675e-01  5.1258251550017475e-01  5.1816766437546324e-01  5.2161632060287333e-01  5.2229941481673103e-01  5.1966442195551521e-01  5.1277187234643951e-01  4.9981662104261149e-01  4.7816846529707152e-01  4.4919000392485442e-01  4.7295980583376723e-01  6.4412188570919526e-01  6.9102957859506675e-01  6.6095821436933344e-01  6.2638905445211479e-01  5.9792066008809486e-01  5.7729238177322861e-01  5.6487761779790724e-01  5.6073687995517874e-01  6.0313926943774376e-01  6.0063062094616582e-01  5.9361804006695784e-01  5.8342481363039755e-01  5.7167867866471134e-01  5.5981993759845750e-01  5.4883078087162929e-01  5.3918313010933305e-01  5.3088502819041583e-01  5.2354562055660525e-01  5.1647923333470014e-01  5.0890561379797583e-01  5.0024054267712448e-01  4.9037728383797885e-01  4.7982892540806005e-01  4.6966002417726893e-01  4.6123011094934707e-01  4.5584011138427066e-01  4.5439415671613664e-01  4.5717151845528053e-01  4.6376144830092442e-01  4.7316419292280959e-01  4.8402039732297159e-01  4.9490692869520492e-01  5.0462905888404908e-01  5.1244338797438260e-01  5.1816172978479991e-01  5.2211301379184194e-01  5.2497422260464610e-01  5.2751433171090367e-01  5.3031817688952210e-01  5.3356504951977957e-01  5.3693058322228560e-01  5.3966349743351927e-01  5.4085649713962558e-01  5.3986270639949918e-01  5.3668644900147189e-01  5.3204735399827818e-01  5.2686787199462937e-01  5.2139701955802131e-01  5.1486255517924007e-01  5.0644300860005653e-01  4.9678233189775511e-01  4.8810756310098857e-01  4.8268707090062968e-01  4.8140088302258044e-01  4.8358005292320039e-01  4.8774882658662377e-01  4.9245717711243342e-01  4.9678176280143055e-01  5.0047293368351831e-01  5.0385803224410919e-01  5.0759337724270481e-01  5.1231939336960464e-01  5.1824656522785573e-01  5.2465988867993030e-01  5.2928437758159408e-01  5.2810864951431724e-01  5.2592714387036432e-01  5.9579741907503792e-01  7.3837779333996090e-01  7.4351888152822954e-01  5.8916447649630788e-01  5.0232557242173592e-01  6.5043130987224640e-01  7.5689202780755838e-01  7.6983156913964301e-01  7.6401942501161091e-01  7.0704328738145006e-01  5.4091711222372385e-01  4.8650600714354603e-01  5.0420164613519836e-01  5.1619640538027844e-01  5.1831981649391690e-01  5.1453487863099945e-01  5.0794302077121212e-01  5.0082502929386097e-01  4.9492763698214148e-01  4.9148682513559416e-01  4.9113605061897181e-01  4.9384528455264920e-01  4.9896743021334555e-01  5.0540628266373111e-01  5.1187362407948422e-01  5.1716682188411600e-01  5.2037124683779568e-01  5.2088404266993971e-01  5.1818958829966644e-01  5.1141758432673134e-01  4.9888488721102525e-01  4.7812005712227501e-01  4.4958162593803275e-01  4.5742783281313359e-01  6.1258249689051691e-01  6.8769956851451441e-01  6.6549399440417789e-01  6.3260236307046358e-01  6.0457658174548434e-01  5.8406256112322019e-01  5.7165727518235820e-01  5.6751127875192786e-01  5.9324830859779687e-01  5.9103940922414611e-01  5.8484916545823107e-01  5.7581090282654734e-01  5.6533836120908876e-01  5.5470634943302444e-01  5.4480145988341810e-01  5.3605484604311116e-01  5.2847094959515628e-01  5.2168872909435438e-01  5.1508602013491178e-01  5.0796574133918937e-01  4.9981413595725183e-01  4.9054739359369359e-01  4.8063754946712173e-01  4.7105453430439886e-01  4.6303991604199990e-01  4.5778939652169676e-01  4.5614406960521747e-01  4.5837786944583986e-01  4.6413229460497973e-01  4.7250446768585502e-01  4.8225584767915941e-01  4.9208491094363566e-01  5.0089821215644537e-01  5.0801785205545835e-01  5.1327835453601711e-01  5.1699138830247748e-01  5.1978867281546115e-01  5.2238414168602443e-01  5.2531774986834179e-01  5.2875049605100821e-01  5.3237404023249291e-01  5.3548165462024866e-01  5.3721634910888738e-01  5.3694971426787463e-01  5.3463657197252235e-01  5.3087988505930894e-01  5.2649116748089675e-01  5.2173501937186184e-01  5.1602134066708283e-01  5.0871045404195303e-01  5.0038184241911743e-01  4.9295008750772962e-01  4.8837119614197472e-01  4.8740476563645552e-01  4.8945149441577379e-01  4.9319084702739968e-01  4.9731992278725357e-01  5.0101023092317665e-01  5.0404878542648035e-01  5.0675513603472433e-01  5.0975722266648382e-01  5.1368005436390551e-01  5.1878369519063283e-01  5.2456854720424628e-01  5.2936979714405408e-01  5.3035057818384501e-01  5.2679037431707532e-01  5.3321761780057486e-01  5.7074301990117893e-01  5.6965259201721130e-01  5.1277229660586920e-01  4.8491362320549403e-01  5.4067031360809814e-01  6.6391578107954718e-01  7.1038708760353431e-01  6.8440689241704433e-01  5.7934219834407796e-01  4.8960667144438613e-01  4.9034375235996219e-01  5.0765513896961567e-01  5.1673392708790344e-01  5.1788364711254242e-01  5.1413246006351143e-01  5.0797088974013760e-01  5.0135180704801974e-01  4.9582861333640588e-01  4.9252160606565482e-01  4.9201116707599296e-01  4.9427183898051269e-01  4.9871048967313997e-01  5.0431943434025628e-01  5.0991373528232642e-01  5.1438906491099268e-01  5.1691286466126363e-01  5.1695595496644853e-01  5.1410278505301921e-01  5.0766694294238845e-01  4.9628667917395042e-01  4.7789880007961955e-01  4.5169098781554085e-01  4.3419881875199651e-01  5.1442925938711148e-01  6.5110986405415272e-01  6.7210538566455491e-01  6.4895300646108478e-01  6.2373849155037975e-01  6.0416510703944104e-01  5.9207919649844398e-01  5.8800915313824142e-01  5.7796142235159820e-01  5.7617946950141363e-01  5.7116834707660713e-01  5.6380739767277721e-01  5.5521769535597820e-01  5.4643930177874178e-01  5.3821580999729834e-01  5.3091260592389078e-01  5.2452365542594948e-01  5.1872548487280701e-01  5.1297886236055379e-01  5.0669505036977258e-01  4.9945130808900884e-01  4.9119099638963332e-01  4.8232586628708668e-01  4.7369011124518723e-01  4.6635455492969036e-01  4.6136003950646032e-01  4.5945222941068037e-01  4.6089369062995883e-01  4.6540063563339662e-01  4.7221345712314267e-01  4.8027528353589810e-01  4.8846966012036919e-01  4.9585888143359574e-01  5.0186709595547463e-01  5.0636586197374744e-01  5.0964287018234644e-01  5.1226308804271703e-01  5.1485882543076711e-01  5.1790400111177592e-01  5.2153405147843634e-01  5.2546689737755370e-01  5.2906451497327023e-01  5.3154619746318632e-01  5.3231102116494911e-01  5.3123938249157576e-01  5.2876023795116633e-01  5.2551975830353614e-01  5.2180387001627948e-01  5.1729205870524531e-01  5.1162383628220776e-01  5.0530296354010151e-01  4.9978864745513008e-01  4.9655707680026878e-01  4.9616259549594027e-01  4.9809043499531419e-01  5.0124484442438622e-01  5.0454478248309031e-01  5.0730879979954924e-01  5.0938310148359267e-01  5.1107728985831380e-01  5.1297514090912211e-01  5.1567102345094340e-01  5.1947525699205543e-01  5.2413015655714446e-01  5.2860062850884360e-01  5.3115416777110891e-01  5.3032223155499802e-01  5.2686521001560416e-01  5.2311456473016649e-01  5.1768723796253646e-01  5.0759472589829924e-01  4.9382866321386076e-01  4.8574456965295948e-01  5.0418335253864766e-01  5.2472699231911779e-01  5.0810357216039148e-01  4.8117183017652404e-01  4.8257988935505891e-01  4.9814998875837246e-01  5.1074621036334111e-01  5.1655481394945468e-01  5.1673314309258978e-01  5.1323031016421683e-01  5.0781338616164684e-01  5.0200964080839638e-01  4.9710374982687072e-01  4.9404824020274818e-01  4.9334456158812429e-01  4.9497388992799840e-01  4.9842459954782947e-01  5.0282341401217467e-01  5.0714259987195509e-01  5.1042761148683069e-01  5.1197021281405641e-01  5.1134878328769695e-01  5.0828420328634272e-01  5.0233138715855830e-01  4.9254368314787456e-01  4.7739431128900311e-01  4.5558448675329122e-01  4.3036023214829311e-01  4.2945507879685763e-01  5.1933173444726133e-01  6.2603383814734448e-01  6.5433066478133561e-01  6.4655276057224864e-01  6.3327797977245281e-01  6.2365394052760548e-01  6.2026245594295137e-01  5.5878184858826363e-01  5.5747709942781898e-01  5.5379633423307484e-01  5.4836203725311050e-01  5.4198944833074925e-01  5.3546024397161995e-01  5.2934867451804168e-01  5.2393406610532711e-01  5.1918900458333028e-01  5.1482342921446245e-01  5.1037888632044970e-01  5.0537175488893848e-01  4.9946508256941352e-01  4.9262124470756186e-01  4.8517848845789546e-01  4.7781529935990075e-01  4.7140634889717947e-01  4.6681173887832011e-01  4.6466223170165305e-01  4.6520212489688728e-01  4.6823137940869913e-01  4.7315818794502529e-01  4.7914320069319083e-01  4.8529532380820145e-01  4.9086951675381829e-01  4.9541891161211332e-01  4.9886539536134672e-01  5.0147254133682895e-01  5.0372881445485940e-01  5.0617172671364707e-01  5.0919925074247752e-01  5.1291979314725400e-01  5.1708643412005206e-01  5.2114665421064799e-01  5.2441386441026938e-01  5.2632419017609644e-01  5.2667783018886782e-01  5.2570987691591431e-01  5.2387886655758753e-01  5.2148132523489710e-01  5.1847009833120083e-01  5.1477288644829011e-01  5.1081694376594544e-01  5.0757486062479840e-01  5.0598427953563130e-01  5.0634550912132414e-01  5.0821741411747057e-01  5.1075131487577763e-01  5.1312157335535846e-01  5.1481971482156763e-01  5.1576188459090400e-01  5.1624525754219497e-01  5.1679951358025644e-01  5.1797525730037852e-01  5.2011421338442709e-01  5.2315197470415820e-01  5.2651680003273338e-01  5.2922461580865277e-01  5.3028451894370088e-01  5.2929764734071827e-01  5.2663656758006427e-01  5.2259287864252146e-01  5.1618197596608073e-01  5.0601284649459288e-01  4.9310700283484032e-01  4.8155317037170492e-01  4.7536044803858535e-01  4.7513003360248124e-01  4.8176222026072574e-01  4.9299925107985898e-01  5.0401971677043544e-01  5.1158304682245059e-01  5.1490001876956715e-01  5.1457710258151257e-01  5.1166654171435832e-01  5.0730154972651098e-01  5.0258761046926126e-01  4.9851703335567726e-01  4.9584934612218579e-01  4.9499244725989167e-01  4.9593571637439304e-01  4.9826693462222188e-01  5.0127690612179643e-01  5.0412938947839181e-01  5.0605155810577795e-01  5.0648427101228666e-01  5.0512880823822881e-01  5.0184803270955547e-01  4.9643459813963137e-01  4.8834448248217660e-01  4.7658606744430104e-01  4.6002878376727213e-01  4.3861979319343403e-01  4.1684741483840193e-01  4.1380604792039177e-01  4.6355201649264910e-01  5.4763445995645910e-01  6.0304617703305252e-01  6.2516691914000633e-01  6.3252623869132940e-01  6.3424856579413980e-01  5.3738120387644162e-01  5.3653881183551411e-01  5.3416190854124668e-01  5.3065750138049506e-01  5.2657327938372323e-01  5.2244983020067881e-01  5.1868901345073459e-01  5.1547186615881901e-01  5.1273654856206585e-01  5.1021270561898202e-01  5.0750458408172794e-01  5.0421063534172195e-01  5.0005632905132347e-01  4.9500535580378768e-01  4.8931287062210188e-01  4.8349803751534953e-01  4.7823765341260288e-01  4.7420821596673451e-01  4.7192089292802547e-01  4.7159662290433896e-01  4.7311623500626288e-01  4.7605759266797831e-01  4.7980671593830165e-01  4.8371089152929458e-01  4.8723336334169559e-01  4.9007126050658262e-01  4.9220870005322631e-01  4.9389297197493542e-01  4.9554047601486034e-01  4.9759668748525770e-01  5.0038661245721239e-01  5.0399610877783729e-01  5.0821968650648852e-01  5.1259794140951243e-01  5.1654720099066798e-01  5.1955211838602666e-01  5.2134961308588257e-01  5.2200181242453214e-01  5.2178871496905432e-01  5.2098433103569064e-01  5.1972700128646954e-01  5.1814200347740680e-01  5.1657059051699861e-01  5.1557057813046070e-01  5.1561133247534996e-01  5.1675901295129989e-01  5.1863137224763223e-01  5.2060623416423579e-01  5.2209651740472962e-01  5.2275030923078103e-01  5.2253770852047188e-01  5.2173453335952280e-01  5.2081808733153212e-01  5.2029945842665282e-01  5.2053860109301231e-01  5.2159979524640199e-01  5.2319808865013495e-01  5.2477348872415031e-01  5.2569655958490358e-01  5.2551431785193747e-01  5.2402448505619970e-01  5.2105258369839735e-01  5.1624284308806923e-01  5.0936921759918896e-01  5.0108303568500245e-01  4.9331449474120326e-01  4.8859469614438483e-01  4.8856139641083807e-01  4.9274121917967056e-01  4.9905406829732762e-01  5.0518372087422481e-01  5.0957152343955714e-01  5.1162198334713505e-01  5.1142758420581003e-01  5.0946176068834748e-01  5.0639158094330650e-01  5.0296303594845537e-01  4.9989122182330492e-01  4.9774119865434407e-01  4.9682410839907520e-01  4.9713966564123091e-01  4.9838384705778582e-01  5.0002391806035507e-01  5.0142664308335083e-01  5.0200877069848227e-01  5.0136357999830528e-01  4.9931187592437326e-01  4.9584125945931135e-01  4.9093923322333294e-01  4.8438701192415579e-01  4.7563864011522550e-01  4.6392790613174584e-01  4.4869586686648810e-01  4.3040430683949910e-01  4.1176556611649517e-01  3.9986131215976473e-01  4.0624025610904868e-01  4.3224368066964486e-01  4.6672877130881052e-01  4.9592738901462485e-01  5.0736625306578775e-01  5.1541877679954573e-01  5.1498151961383065e-01  5.1376204529188663e-01  5.1201332433033775e-01  5.1008182391289381e-01  5.0831274877606603e-01  5.0695396684788474e-01  5.0608666318361017e-01  5.0560186654343120e-01  5.0522847589950648e-01  5.0460550588918995e-01  5.0338076422082056e-01  5.0131167470996485e-01  4.9834309634874102e-01  4.9464164525108145e-01  4.9057505671193841e-01  4.8663771059202293e-01  4.8333810874775007e-01  4.8107707493144231e-01  4.8005130844454075e-01  4.8021143613845957e-01  4.8128717295834456e-01  4.8287078202730871e-01  4.8453282328289798e-01  4.8593731117937633e-01  4.8692672909182921e-01  4.8755698004553621e-01  4.8807484542842927e-01  4.8884387065438495e-01  4.9023685976225118e-01  4.9252194142096967e-01  4.9577235478991283e-01  4.9982659902616744e-01  5.0431542429476872e-01  5.0875576363966968e-01  5.1268936971453272e-01  5.1581856606461574e-01  5.1807659344807067e-01  5.1959134259890027e-01  5.2057116533953474e-01  5.2121238858479546e-01  5.2170530300562368e-01  5.2228778062974812e-01  5.2321887159858071e-01  5.2464477303537327e-01  5.2647681511786448e-01  5.2839498736391688e-01  5.2996407238407972e-01  5.3077637799669442e-01  5.3056800243257918e-01  5.2930391424148593e-01  5.2721668827126866e-01  5.2475560159497625e-01  5.2243633521903021e-01  5.2065666308755121e-01  5.1956833635494182e-01  5.1905046208120120e-01  5.1877626332816118e-01  5.1833702280840654e-01  5.1736701449641453e-01  5.1560544529606378e-01  5.1288372083018452e-01  5.0912679169034991e-01  5.0447493089357753e-01  4.9948129345170078e-01  4.9515286920095386e-01  4.9262606803141851e-01  4.9257743546890354e-01  4.9482139055171104e-01  4.9843410171915736e-01  5.0225760463163516e-01  5.0535590952382992e-01  5.0720204576129302e-01  5.0765747619291279e-01  5.0687948635693081e-01  5.0522634035369929e-01  5.0316427643297235e-01  5.0116840260874129e-01  4.9962541719074233e-01  4.9875662586516795e-01  4.9857601490386616e-01  4.9888960466429777e-01  4.9933778237758181e-01  4.9947895057862590e-01  4.9890160116311394e-01  4.9733227814584630e-01  4.9469284921941253e-01  4.9106963073579918e-01  4.8659330772180442e-01  4.8127768748342220e-01  4.7490290674012914e-01  4.6703133433092370e-01  4.5719838642628996e-01  4.4523281175203838e-01  4.3159923342570750e-01  4.1762165560738396e-01  4.0535695042903330e-01  3.9732399043967193e-01  3.9496915897820417e-01  3.9664532425340548e-01  3.9804635123659188e-01  4.9446605546936812e-01  4.9435441638168853e-01  4.9407885431296905e-01  4.9380173905774766e-01  4.9374323954307581e-01  4.9411433582186259e-01  4.9504419702580282e-01  4.9652391242313360e-01  4.9838693320543681e-01  5.0033608494629522e-01  5.0201044921806004e-01  5.0307055327522987e-01  5.0327603177030655e-01  5.0253746911135511e-01  5.0093510778518979e-01  4.9870332270975593e-01  4.9618201454530003e-01  4.9374067645671182e-01  4.9169031416584785e-01  4.9020780161166072e-01  4.8929855035517816e-01  4.8881209164889072e-01  4.8850541112852958e-01  4.8813152839446194e-01  4.8752474584753042e-01  4.8665919976004079e-01  4.8566769336827476e-01  4.8481810717906948e-01  4.8445338370431512e-01  4.8490836915425012e-01  4.8642265820425618e-01  4.8907173243818336e-01  4.9273671272656000e-01  4.9712456159627982e-01  5.0183691361505345e-01  5.0647005338650808e-01  5.1071474328190858e-01  5.1441901525660971e-01  5.1758928977843888e-01  5.2033782352004898e-01  5.2281672512044242e-01  5.2517553814750728e-01  5.2753881184548668e-01  5.2997465383640097e-01  5.3245300228075465e-01  5.3482905118650970e-01  5.3686959518563393e-01  5.3829109706837786e-01  5.3878095296482953e-01  5.3804147577080363e-01  5.3591897042536041e-01  5.3256621584902697e-01  5.2846749569808338e-01  5.2424863312522896e-01  5.2041172074932507e-01  5.1718349035499778e-01  5.1452521759883429e-01  5.1223196698373896e-01  5.1004204447854595e-01  5.0771856855330255e-01  5.0509527672526588e-01  5.0209811820945904e-01  4.9876863818396766e-01  4.9530573417312623e-01  4.9209859815390800e-01  4.8968284310380111e-01  4.8857644401727912e-01  4.8905292303875370e-01  4.9099393946028508e-01  4.9392495271691289e-01  4.9719982571047067e-01  5.0020927988805264e-01  5.0251749356397568e-01  5.0391166670132581e-01  5.0439162569125084e-01  5.0412344834344225e-01  5.0337046491792758e-01  5.0241617919331794e-01  5.0149774500775424e-01  5.0076238499120984e-01  5.0024498865568479e-01  4.9985871146435584e-01  4.9940062720073286e-01  4.9858869497890579e-01  4.9714099287211511e-01  4.9487740261093111e-01  4.9179241914420219e-01  4.8804912267696066e-01  4.8388545272633027e-01  4.7947619225634291e-01  4.7482189329757529e-01  4.6972632099066713e-01  4.6388597981960639e-01  4.5706555158310852e-01  4.4928952031244646e-01  4.4096152089868862e-01  4.3284791088800767e-01  4.2587097242785177e-01  4.2077274060422126e-01  4.1782963728999611e-01  4.1689621537170923e-01  4.7597398105319172e-01  4.7609824600669060e-01  4.7651929326940018e-01  4.7736621018728193e-01  4.7880572653603470e-01  4.8098156382980628e-01  4.8395053825367484e-01  4.8763324852355155e-01  4.9179878872286337e-01  4.9609587985739473e-01  5.0012391652829524e-01  5.0351707312484928e-01  5.0601034760405994e-01  5.0747237064439110e-01  5.0790957363951283e-01  5.0745200496953347e-01  5.0632350501208001e-01  5.0479310758673945e-01  5.0311052046572524e-01  5.0144219565067272e-01  4.9983315582789861e-01  4.98213467462