<?xml version="1.0"?>
<VTKFile type="UnstructuredGrid"  version="0.1"  >
<UnstructuredGrid>
<Piece  NumberOfPoints="20201" NumberOfCells="40000">
<Points>
<DataArray  type="Float64"  NumberOfComponents="3"  format="ascii">0 0 0  2 0 0  4 0 0  6 0 0  8 0 0  10 0 0  12 0 0  14 0 0  16 0 0  18 0 0  20 0 0  22 0 0  24 0 0  26 0 0  28 0 0  30 0 0  32 0 0  34 0 0  36 0 0  38 0 0  40 0 0  42 0 0  44 0 0  46 0 0  48 0 0  50 0 0  52 0 0  54 0 0  56 0 0  58 0 0  60 0 0  62 0 0  64 0 0  66 0 0  68 0 0  70 0 0  72 0 0  74 0 0  76 0 0  78 0 0  80 0 0  82 0 0  84 0 0  86 0 0  88 0 0  90 0 0  92 0 0  94 0 0  96 0 0  98 0 0  100 0 0  102 0 0  104 0 0  106 0 0  108 0 0  110 0 0  112 0 0  114 0 0  116 0 0  118 0 0  120 0 0  122 0 0  124 0 0  126 0 0  128 0 0  130 0 0  132 0 0  134 0 0  136 0 0  138 0 0  140 0 0  142 0 0  144 0 0  146 0 0  148 0 0  150 0 0  152 0 0  154 0 0  156 0 0  158 0 0  160 0 0  162 0 0  164 0 0  166 0 0  168 0 0  170 0 0  172 0 0  174 0 0  176 0 0  178 0 0  180 0 0  182 0 0  184 0 0  186 0 0  188 0 0  190 0 0  192 0 0  194 0 0  196 0 0  198 0 0  200 0 0  0 2 0  2 2 0  4 2 0  6 2 0  8 2 0  10 2 0  12 2 0  14 2 0  16 2 0  18 2 0  20 2 0  22 2 0  24 2 0  26 2 0  28 2 0  30 2 0  32 2 0  34 2 0  36 2 0  38 2 0  40 2 0  42 2 0  44 2 0  46 2 0  48 2 0  50 2 0  52 2 0  54 2 0  56 2 0  58 2 0  60 2 0  62 2 0  64 2 0  66 2 0  68 2 0  70 2 0  72 2 0  74 2 0  76 2 0  78 2 0  80 2 0  82 2 0  84 2 0  86 2 0  88 2 0  90 2 0  92 2 0  94 2 0  96 2 0  98 2 0  100 2 0  102 2 0  104 2 0  106 2 0  108 2 0  110 2 0  112 2 0  114 2 0  116 2 0  118 2 0  120 2 0  122 2 0  124 2 0  126 2 0  128 2 0  130 2 0  132 2 0  134 2 0  136 2 0  138 2 0  140 2 0  142 2 0  144 2 0  146 2 0  148 2 0  150 2 0  152 2 0  154 2 0  156 2 0  158 2 0  160 2 0  162 2 0  164 2 0  166 2 0  168 2 0  170 2 0  172 2 0  174 2 0  176 2 0  178 2 0  180 2 0  182 2 0  184 2 0  186 2 0  188 2 0  190 2 0  192 2 0  194 2 0  196 2 0  198 2 0  200 2 0  0 4 0  2 4 0  4 4 0  6 4 0  8 4 0  10 4 0  12 4 0  14 4 0  16 4 0  18 4 0  20 4 0  22 4 0  24 4 0  26 4 0  28 4 0  30 4 0  32 4 0  34 4 0  36 4 0  38 4 0  40 4 0  42 4 0  44 4 0  46 4 0  48 4 0  50 4 0  52 4 0  54 4 0  56 4 0  58 4 0  60 4 0  62 4 0  64 4 0  66 4 0  68 4 0  70 4 0  72 4 0  74 4 0  76 4 0  78 4 0  80 4 0  82 4 0  84 4 0  86 4 0  88 4 0  90 4 0  92 4 0  94 4 0  96 4 0  98 4 0  100 4 0  102 4 0  104 4 0  106 4 0  108 4 0  110 4 0  112 4 0  114 4 0  116 4 0  118 4 0  120 4 0  122 4 0  124 4 0  126 4 0  128 4 0  130 4 0  132 4 0  134 4 0  136 4 0  138 4 0  140 4 0  142 4 0  144 4 0  146 4 0  148 4 0  150 4 0  152 4 0  154 4 0  156 4 0  158 4 0  160 4 0  162 4 0  164 4 0  166 4 0  168 4 0  170 4 0  172 4 0  174 4 0  176 4 0  178 4 0  180 4 0  182 4 0  184 4 0  186 4 0  188 4 0  190 4 0  192 4 0  194 4 0  196 4 0  198 4 0  200 4 0  0 6 0  2 6 0  4 6 0  6 6 0  8 6 0  10 6 0  12 6 0  14 6 0  16 6 0  18 6 0  20 6 0  22 6 0  24 6 0  26 6 0  28 6 0  30 6 0  32 6 0  34 6 0  36 6 0  38 6 0  40 6 0  42 6 0  44 6 0  46 6 0  48 6 0  50 6 0  52 6 0  54 6 0  56 6 0  58 6 0  60 6 0  62 6 0  64 6 0  66 6 0  68 6 0  70 6 0  72 6 0  74 6 0  76 6 0  78 6 0  80 6 0  82 6 0  84 6 0  86 6 0  88 6 0  90 6 0  92 6 0  94 6 0  96 6 0  98 6 0  100 6 0  102 6 0  104 6 0  106 6 0  108 6 0  110 6 0  112 6 0  114 6 0  116 6 0  118 6 0  120 6 0  122 6 0  124 6 0  126 6 0  128 6 0  130 6 0  132 6 0  134 6 0  136 6 0  138 6 0  140 6 0  142 6 0  144 6 0  146 6 0  148 6 0  150 6 0  152 6 0  154 6 0  156 6 0  158 6 0  160 6 0  162 6 0  164 6 0  166 6 0  168 6 0  170 6 0  172 6 0  174 6 0  176 6 0  178 6 0  180 6 0  182 6 0  184 6 0  186 6 0  188 6 0  190 6 0  192 6 0  194 6 0  196 6 0  198 6 0  200 6 0  0 8 0  2 8 0  4 8 0  6 8 0  8 8 0  10 8 0  12 8 0  14 8 0  16 8 0  18 8 0  20 8 0  22 8 0  24 8 0  26 8 0  28 8 0  30 8 0  32 8 0  34 8 0  36 8 0  38 8 0  40 8 0  42 8 0  44 8 0  46 8 0  48 8 0  50 8 0  52 8 0  54 8 0  56 8 0  58 8 0  60 8 0  62 8 0  64 8 0  66 8 0  68 8 0  70 8 0  72 8 0  74 8 0  76 8 0  78 8 0  80 8 0  82 8 0  84 8 0  86 8 0  88 8 0  90 8 0  92 8 0  94 8 0  96 8 0  98 8 0  100 8 0  102 8 0  104 8 0  106 8 0  108 8 0  110 8 0  112 8 0  114 8 0  116 8 0  118 8 0  120 8 0  122 8 0  124 8 0  126 8 0  128 8 0  130 8 0  132 8 0  134 8 0  136 8 0  138 8 0  140 8 0  142 8 0  144 8 0  146 8 0  148 8 0  150 8 0  152 8 0  154 8 0  156 8 0  158 8 0  160 8 0  162 8 0  164 8 0  166 8 0  168 8 0  170 8 0  172 8 0  174 8 0  176 8 0  178 8 0  180 8 0  182 8 0  184 8 0  186 8 0  188 8 0  190 8 0  192 8 0  194 8 0  196 8 0  198 8 0  200 8 0  0 10 0  2 10 0  4 10 0  6 10 0  8 10 0  10 10 0  12 10 0  14 10 0  16 10 0  18 10 0  20 10 0  22 10 0  24 10 0  26 10 0  28 10 0  30 10 0  32 10 0  34 10 0  36 10 0  38 10 0  40 10 0  42 10 0  44 10 0  46 10 0  48 10 0  50 10 0  52 10 0  54 10 0  56 10 0  58 10 0  60 10 0  62 10 0  64 10 0  66 10 0  68 10 0  70 10 0  72 10 0  74 10 0  76 10 0  78 10 0  80 10 0  82 10 0  84 10 0  86 10 0  88 10 0  90 10 0  92 10 0  94 10 0  96 10 0  98 10 0  100 10 0  102 10 0  104 10 0  106 10 0  108 10 0  110 10 0  112 10 0  114 10 0  116 10 0  118 10 0  120 10 0  122 10 0  124 10 0  126 10 0  128 10 0  130 10 0  132 10 0  134 10 0  136 10 0  138 10 0  140 10 0  142 10 0  144 10 0  146 10 0  148 10 0  150 10 0  152 10 0  154 10 0  156 10 0  158 10 0  160 10 0  162 10 0  164 10 0  166 10 0  168 10 0  170 10 0  172 10 0  174 10 0  176 10 0  178 10 0  180 10 0  182 10 0  184 10 0  186 10 0  188 10 0  190 10 0  192 10 0  194 10 0  196 10 0  198 10 0  200 10 0  0 12 0  2 12 0  4 12 0  6 12 0  8 12 0  10 12 0  12 12 0  14 12 0  16 12 0  18 12 0  20 12 0  22 12 0  24 12 0  26 12 0  28 12 0  30 12 0  32 12 0  34 12 0  36 12 0  38 12 0  40 12 0  42 12 0  44 12 0  46 12 0  48 12 0  50 12 0  52 12 0  54 12 0  56 12 0  58 12 0  60 12 0  62 12 0  64 12 0  66 12 0  68 12 0  70 12 0  72 12 0  74 12 0  76 12 0  78 12 0  80 12 0  82 12 0  84 12 0  86 12 0  88 12 0  90 12 0  92 12 0  94 12 0  96 12 0  98 12 0  100 12 0  102 12 0  104 12 0  106 12 0  108 12 0  110 12 0  112 12 0  114 12 0  116 12 0  118 12 0  120 12 0  122 12 0  124 12 0  126 12 0  128 12 0  130 12 0  132 12 0  134 12 0  136 12 0  138 12 0  140 12 0  142 12 0  144 12 0  146 12 0  148 12 0  150 12 0  152 12 0  154 12 0  156 12 0  158 12 0  160 12 0  162 12 0  164 12 0  166 12 0  168 12 0  170 12 0  172 12 0  174 12 0  176 12 0  178 12 0  180 12 0  182 12 0  184 12 0  186 12 0  188 12 0  190 12 0  192 12 0  194 12 0  196 12 0  198 12 0  200 12 0  0 14 0  2 14 0  4 14 0  6 14 0  8 14 0  10 14 0  12 14 0  14 14 0  16 14 0  18 14 0  20 14 0  22 14 0  24 14 0  26 14 0  28 14 0  30 14 0  32 14 0  34 14 0  36 14 0  38 14 0  40 14 0  42 14 0  44 14 0  46 14 0  48 14 0  50 14 0  52 14 0  54 14 0  56 14 0  58 14 0  60 14 0  62 14 0  64 14 0  66 14 0  68 14 0  70 14 0  72 14 0  74 14 0  76 14 0  78 14 0  80 14 0  82 14 0  84 14 0  86 14 0  88 14 0  90 14 0  92 14 0  94 14 0  96 14 0  98 14 0  100 14 0  102 14 0  104 14 0  106 14 0  108 14 0  110 14 0  112 14 0  114 14 0  116 14 0  118 14 0  120 14 0  122 14 0  124 14 0  126 14 0  128 14 0  130 14 0  132 14 0  134 14 0  136 14 0  138 14 0  140 14 0  142 14 0  144 14 0  146 14 0  148 14 0  150 14 0  152 14 0  154 14 0  156 14 0  158 14 0  160 14 0  162 14 0  164 14 0  166 14 0  168 14 0  170 14 0  172 14 0  174 14 0  176 14 0  178 14 0  180 14 0  182 14 0  184 14 0  186 14 0  188 14 0  190 14 0  192 14 0  194 14 0  196 14 0  198 14 0  200 14 0  0 16 0  2 16 0  4 16 0  6 16 0  8 16 0  10 16 0  12 16 0  14 16 0  16 16 0  18 16 0  20 16 0  22 16 0  24 16 0  26 16 0  28 16 0  30 16 0  32 16 0  34 16 0  36 16 0  38 16 0  40 16 0  42 16 0  44 16 0  46 16 0  48 16 0  50 16 0  52 16 0  54 16 0  56 16 0  58 16 0  60 16 0  62 16 0  64 16 0  66 16 0  68 16 0  70 16 0  72 16 0  74 16 0  76 16 0  78 16 0  80 16 0  82 16 0  84 16 0  86 16 0  88 16 0  90 16 0  92 16 0  94 16 0  96 16 0  98 16 0  100 16 0  102 16 0  104 16 0  106 16 0  108 16 0  110 16 0  112 16 0  114 16 0  116 16 0  118 16 0  120 16 0  122 16 0  124 16 0  126 16 0  128 16 0  130 16 0  132 16 0  134 16 0  136 16 0  138 16 0  140 16 0  142 16 0  144 16 0  146 16 0  148 16 0  150 16 0  152 16 0  154 16 0  156 16 0  158 16 0  160 16 0  162 16 0  164 16 0  166 16 0  168 16 0  170 16 0  172 16 0  174 16 0  176 16 0  178 16 0  180 16 0  182 16 0  184 16 0  186 16 0  188 16 0  190 16 0  192 16 0  194 16 0  196 16 0  198 16 0  200 16 0  0 18 0  2 18 0  4 18 0  6 18 0  8 18 0  10 18 0  12 18 0  14 18 0  16 18 0  18 18 0  20 18 0  22 18 0  24 18 0  26 18 0  28 18 0  30 18 0  32 18 0  34 18 0  36 18 0  38 18 0  40 18 0  42 18 0  44 18 0  46 18 0  48 18 0  50 18 0  52 18 0  54 18 0  56 18 0  58 18 0  60 18 0  62 18 0  64 18 0  66 18 0  68 18 0  70 18 0  72 18 0  74 18 0  76 18 0  78 18 0  80 18 0  82 18 0  84 18 0  86 18 0  88 18 0  90 18 0  92 18 0  94 18 0  96 18 0  98 18 0  100 18 0  102 18 0  104 18 0  106 18 0  108 18 0  110 18 0  112 18 0  114 18 0  116 18 0  118 18 0  120 18 0  122 18 0  124 18 0  126 18 0  128 18 0  130 18 0  132 18 0  134 18 0  136 18 0  138 18 0  140 18 0  142 18 0  144 18 0  146 18 0  148 18 0  150 18 0  152 18 0  154 18 0  156 18 0  158 18 0  160 18 0  162 18 0  164 18 0  166 18 0  168 18 0  170 18 0  172 18 0  174 18 0  176 18 0  178 18 0  180 18 0  182 18 0  184 18 0  186 18 0  188 18 0  190 18 0  192 18 0  194 18 0  196 18 0  198 18 0  200 18 0  0 20 0  2 20 0  4 20 0  6 20 0  8 20 0  10 20 0  12 20 0  14 20 0  16 20 0  18 20 0  20 20 0  22 20 0  24 20 0  26 20 0  28 20 0  30 20 0  32 20 0  34 20 0  36 20 0  38 20 0  40 20 0  42 20 0  44 20 0  46 20 0  48 20 0  50 20 0  52 20 0  54 20 0  56 20 0  58 20 0  60 20 0  62 20 0  64 20 0  66 20 0  68 20 0  70 20 0  72 20 0  74 20 0  76 20 0  78 20 0  80 20 0  82 20 0  84 20 0  86 20 0  88 20 0  90 20 0  92 20 0  94 20 0  96 20 0  98 20 0  100 20 0  102 20 0  104 20 0  106 20 0  108 20 0  110 20 0  112 20 0  114 20 0  116 20 0  118 20 0  120 20 0  122 20 0  124 20 0  126 20 0  128 20 0  130 20 0  132 20 0  134 20 0  136 20 0  138 20 0  140 20 0  142 20 0  144 20 0  146 20 0  148 20 0  150 20 0  152 20 0  154 20 0  156 20 0
[...]
<PointData  Scalars="f_271-0"> 
<DataArray  type="Float64"  Name="f_271-0"  format="ascii">6.4757379764353828e-01  6.4053571433809642e-01  6.2279055039945352e-01  6.0145273517817111e-01  5.8181052891345031e-01  5.6516093698687475e-01  5.5103433623522979e-01  5.3937661987996155e-01  5.3075207873427310e-01  5.2545612364255578e-01  5.2219423602761506e-01  5.1784272866254988e-01  5.0949560010512152e-01  4.9643009145075856e-01  4.8007035520568775e-01  4.6310204593757442e-01  4.4870511334287805e-01  4.3978009114758809e-01  4.3816016657437806e-01  4.4417186519895907e-01  4.5670819154251741e-01  4.7361834142215381e-01  4.9219743193145410e-01  5.0971212399362864e-01  5.2393505392170658e-01  5.3359160710621523e-01  5.3858734434900590e-01  5.3993511963387730e-01  5.3939432248593466e-01  5.3891856090233181e-01  5.4006121034552601e-01  5.4350049170917769e-01  5.4879992934771926e-01  5.5441280370942503e-01  5.5787829954216583e-01  5.5631500574806947e-01  5.4752649687408317e-01  5.3203044845829150e-01  5.1609853526175498e-01  5.1167918344458208e-01  5.1739251044835932e-01  5.0495977654667079e-01  4.7305753491636737e-01  4.5130083016683481e-01  4.4719532149826385e-01  4.5341667090525739e-01  4.6379301950175528e-01  4.7455920804378754e-01  4.8353079764520168e-01  4.8975043324050360e-01  4.9336901241196113e-01  4.9553626100331460e-01  4.9807437710313607e-01  5.0292393486289944e-01  5.1150352669619836e-01  5.2413062798064591e-01  5.3959824995518935e-01  5.5502096991216920e-01  5.6802660437066799e-01  5.9486268428014932e-01  6.6996673305720578e-01  7.0539039975614759e-01  6.3095209468616809e-01  5.6516258891187154e-01  5.8864793542246840e-01  6.6053817744990984e-01  6.7998462985073993e-01  6.6497200769235043e-01  6.0878610355563911e-01  5.4505895967473972e-01  5.3321001183849337e-01  5.3764267490780338e-01  5.3783606265065687e-01  5.3205837467875372e-01  5.2121987342266662e-01  5.0743988129126727e-01  4.9369460655932745e-01  4.8292101922651520e-01  4.7728845884729976e-01  4.7782677100472232e-01  4.8432100483061374e-01  4.9539884579589583e-01  5.0881461867877154e-01  5.2193158271549678e-01  5.3233614412176733e-01  5.3846744898386290e-01  5.4010077824380820e-01  5.3839567734647720e-01  5.3504748897172871e-01  5.3012140485906856e-01  5.1912462527540770e-01  4.9483961102514357e-01  4.8635224137698913e-01  5.8690665008591503e-01  6.3674462909041218e-01  6.0474384761927724e-01  5.7179475416153969e-01  5.4906388311401766e-01  5.3264821994130329e-01  5.2127572674439460e-01  5.1699445567441182e-01  6.4123804045206956e-01  6.3489076545732381e-01  6.1865702843386561e-01  5.9870350929148797e-01  5.7994108413316892e-01  5.6384414172616437e-01  5.5015906798374958e-01  5.3884380940900523e-01  5.3031066642036884e-01  5.2471393440073621e-01  5.2089751738462964e-01  5.1615440728544904e-01  5.0785478927655059e-01  4.9520892678493145e-01  4.7942532825360284e-01  4.6299733896465561e-01  4.4896353157378394e-01  4.4013186460544906e-01  4.3830788795417397e-01  4.4385756158105849e-01  4.5575452907197722e-01  4.7194097062605278e-01  4.8980288393107696e-01  5.0668944060087684e-01  5.2043925578145933e-01  5.2981675831050279e-01  5.3473275793317365e-01  5.3617263475418864e-01  5.3584492014351137e-01  5.3564403496248791e-01  5.3707246175886236e-01  5.4077915354644013e-01  5.4632630621984346e-01  5.5219557050129098e-01  5.5598998021853518e-01  5.5493118299750899e-01  5.4694855953823462e-01  5.3268348595779147e-01  5.1854049024742388e-01  5.1667125714313689e-01  5.2540190806004117e-01  5.1468443720737767e-01  4.8194152796125950e-01  4.5834832232941364e-01  4.5287102500692006e-01  4.5815521474512677e-01  4.6780464076338929e-01  4.7797186807740716e-01  4.8644611247706154e-01  4.9224652609923158e-01  4.9549486202289333e-01  4.9730504923710833e-01  4.9945689823530026e-01  5.0385009823851701e-01  5.1188056168272933e-01  5.2388372140806072e-01  5.3874290338687625e-01  5.5378394040702661e-01  5.6644763697462119e-01  5.8586053568665575e-01  6.3453686163152867e-01  6.5896644423296380e-01  6.0800167405776029e-01  5.6309194737705870e-01  5.7631896609760502e-01  6.3541539570087235e-01  6.5898969161341736e-01  6.3949058100465683e-01  5.8348144989590378e-01  5.3798753979364311e-01  5.3310389976941830e-01  5.3757658502806782e-01  5.3749734577988895e-01  5.3176192650373932e-01  5.2122462334955511e-01  5.0788021600225419e-01  4.9454160685571746e-01  4.8401287668567128e-01  4.7839424740782449e-01  4.7870367307230954e-01  4.8475281479016380e-01  4.9522222855620562e-01  5.0793919303847790e-01  5.2035106625217609e-01  5.3012212189512398e-01  5.3573558414091771e-01  5.3694412852451112e-01  5.3480779545030088e-01  5.3092589821197211e-01  5.2552756666110423e-01  5.1487685130926442e-01  4.9225555923844411e-01  4.7726078513452053e-01  5.6048651122061988e-01  6.3151739255052974e-01  6.0933602921459651e-01  5.7653712532585710e-01  5.5242519783110433e-01  5.3490343734715562e-01  5.2296896143754434e-01  5.1853188147574336e-01  6.2360929620218508e-01  6.1891478792639176e-01  6.0643484256728475e-01  5.9015690663285736e-01  5.7393309934415337e-01  5.5951502858785229e-01  5.4716103245657954e-01  5.3691723949032888e-01  5.2889979430027767e-01  5.2294689424308183e-01  5.1812209857616409e-01  5.1256965342924621e-01  5.0436099092052988e-01  4.9270350440958904e-01  4.7837005313475356e-01  4.6337084871477224e-01  4.5034276376301136e-01  4.4181373489060016e-01  4.3948599045751996e-01  4.4380811024951317e-01  4.5395950926041506e-01  4.6813597255335598e-01  4.8398094383232459e-01  4.9908077990330824e-01  5.1146401517375406e-01  5.2000729677416035e-01  5.2463677246156792e-01  5.2625976356777537e-01  5.2644036520516202e-01  5.2690558250845698e-01  5.2901544491991748e-01  5.3334002400572522e-01  5.3944529003193931e-01  5.4590496703937252e-01  5.5051253326668947e-01  5.5077260535472783e-01  5.4491171312734665e-01  5.3369538237330238e-01  5.2309945330410379e-01  5.2406016142615852e-01  5.3486354249705226e-01  5.2758662349067675e-01  4.9773312603325948e-01  4.7398078104094332e-01  4.6690851845030840e-01  4.7042109539712462e-01  4.7838786903116159e-01  4.8704970430703820e-01  4.9423218096830046e-01  4.9893468158005827e-01  5.0121941020313832e-01  5.0210517447186853e-01  5.0324770825434806e-01  5.0642342555876485e-01  5.1295607373470420e-01  5.2322110252913612e-01  5.3632922952179785e-01  5.5011039808440199e-01  5.6201179736998830e-01  5.7268854892560350e-01  5.8671601439330989e-01  5.9274400391595738e-01  5.7768847771126963e-01  5.5984882029998828e-01  5.5504756880957373e-01  5.7173035337104749e-01  5.8258646592555119e-01  5.6529782604667056e-01  5.3797811026739584e-01  5.2842052956636276e-01  5.3264215117202407e-01  5.3664260259703289e-01  5.3605127377639572e-01  5.3058280757221654e-01  5.2095371157036696e-01  5.0885253373993244e-01  4.9668046272728239e-01  4.8689321516659972e-01  4.8139575565223863e-01  4.8115851235386514e-01  4.8605507021599054e-01  4.9490883194619784e-01  5.0575175471386224e-01  5.1626916464728223e-01  5.2434749979734008e-01  5.2860610321640222e-01  5.2877287744527113e-01  5.2571013539394251e-01  5.2083590289225190e-01  5.1474157047009061e-01  5.0524820650334834e-01  4.8709537179020646e-01  4.6444044558929731e-01  4.9617536537300405e-01  5.9508297201209692e-01  6.1649074546608706e-01  5.9165754198741782e-01  5.6565432732236876e-01  5.4540596786438222e-01  5.3179723584563676e-01  5.2683609189978997e-01  5.9856830453337229e-01  5.9564687994985077e-01  5.8744478561687263e-01  5.7582577543306424e-01  5.6327326386331578e-01  5.5152985090151130e-01  5.4132862715785990e-01  5.3288774815654871e-01  5.2612181239392553e-01  5.2058754407696706e-01  5.1543886147918161e-01  5.0948802486693012e-01  5.0156591357168478e-01  4.9112368284352581e-01  4.7863768720620747e-01  4.6557710463893348e-01  4.5401577101813240e-01  4.4603961384817264e-01  4.4314194533056106e-01  4.4582606627160531e-01  4.5352417291329944e-01  4.6478731102166149e-01  4.7764454932517186e-01  4.9004653448518110e-01  5.0031410250497310e-01  5.0749602600211563e-01  5.1154255801571991e-01  5.1324379557716315e-01  5.1394733193601116e-01  5.1513111616046170e-01  5.1794701802564891e-01  5.2285727986216735e-01  5.2945144423738044e-01  5.3646671791971356e-01  5.4199966363497110e-01  5.4395585543774438e-01  5.4088656185002082e-01  5.3335034838974194e-01  5.2553472309256144e-01  5.2440081817522077e-01  5.2914807614391912e-01  5.2391863402887873e-01  5.0500621416820979e-01  4.8890258426866834e-01  4.8365216283502521e-01  4.8629050917785277e-01  4.9252223688379387e-01  4.9932160843838724e-01  5.0480160378741845e-01  5.0804212444428143e-01  5.0906902625206207e-01  5.0876996632907556e-01  5.0860193347901361e-01  5.1013560153337889e-01  5.1456404261755306e-01  5.2229229928191545e-01  5.3270094786338051e-01  5.4418100047491869e-01  5.5462229533096274e-01  5.6248307019376642e-01  5.6728055034593805e-01  5.6803295167241363e-01  5.6355162198689013e-01  5.5464153647897096e-01  5.4368319534638476e-01  5.3441750662955045e-01  5.2723897135663267e-01  5.2111616668200256e-01  5.2010135340774866e-01  5.2485581198550113e-01  5.3050703195287685e-01  5.3350115873220549e-01  5.3269851548892699e-01  5.2796092911231129e-01  5.1982480848891288e-01  5.0961416756766753e-01  4.9922820688208974e-01  4.9066768876254951e-01  4.8554847366914455e-01  4.8473860032434818e-01  4.8817256614085119e-01  4.9487021050419999e-01  5.0316418121770456e-01  5.1109477686169758e-01  5.1688308187877174e-01  5.1937087915964952e-01  5.1831361954509203e-01  5.1440309939727957e-01  5.0888231747814172e-01  5.0264322135192030e-01  4.9489212729584225e-01  4.8228302832041564e-01  4.6226233027306951e-01  4.5122154177706730e-01  5.0110953330453800e-01  5.7878138032660742e-01  6.0004702375700136e-01  5.8754944413456478e-01  5.6916896309281395e-01  5.5498765805802275e-01  5.4966275120446295e-01  5.7054295646533437e-01  5.6894396931315239e-01  5.6418471400816650e-01  5.5683941579182650e-01  5.4823330043037499e-01  5.3975882968923039e-01  5.3231508964067653e-01  5.2625086854460701e-01  5.2142585485967929e-01  5.1727883389514195e-01  5.1298840929015910e-01  5.0768941727721184e-01  5.0070464442862228e-01  4.9179783937931693e-01  4.8137357805297554e-01  4.7049873926074282e-01  4.6069069673128188e-01  4.5352345714691517e-01  4.5018814303354898e-01  4.5116761547584699e-01  4.5612320172464538e-01  4.6399829135166321e-01  4.7328616754183978e-01  4.8239055107228318e-01  4.8999741406585912e-01  4.9536977703439683e-01  4.9848906054186859e-01  5.0000435547686606e-01  5.0100345540907942e-01  5.0266838510936662e-01  5.0590912805989663e-01  5.1107320737733708e-01  5.1780198299253355e-01  5.2505782615031060e-01  5.3131498600828830e-01  5.3492651642815703e-01  5.3472007808804922e-01  5.3080750274898569e-01  5.2522993656027661e-01  5.2113885754749323e-01  5.1897076197250946e-01  5.1454606171757100e-01  5.0680112839949631e-01  5.0079723439689683e-01  4.9972210586129584e-01  5.0270683755708967e-01  5.0762539751288693e-01  5.1258113236487046e-01  5.1622438476950616e-01  5.1786695219520773e-01  5.1756506080548137e-01  5.1606604511944731e-01  5.1456767797034964e-01  5.1435665150177989e-01  5.1642915556399993e-01  5.2117979115445690e-01  5.2823000026992140e-01  5.3646332996236668e-01  5.4432432820583376e-01  5.5034079944367120e-01  5.5357386813153520e-01  5.5363278944256777e-01  5.5039410725399918e-01  5.4393103778516227e-01  5.3493730983830734e-01  5.2529724662818578e-01  5.1789574670278749e-01  5.1507878326482059e-01  5.1687435657260872e-01  5.2110534325750102e-01  5.2522448036240510e-01  5.2750687605989521e-01  5.2705291838665502e-01  5.2357726391980031e-01  5.1742028922343342e-01  5.0955187826210302e-01  5.0138897069957389e-01  4.9446378564682075e-01  4.9005374410497954e-01  4.8887106048384577e-01  4.9088627207596819e-01  4.9533260270778462e-01  5.0089532385651592e-01  5.0603882983551740e-01  5.0938643259105865e-01  5.1005904211220765e-01  5.0789025925784137e-01  5.0344632977102222e-01  4.9778349530391974e-01  4.9188834510843160e-01  4.8582620060953552e-01  4.7793995006348916e-01  4.6528233699886273e-01  4.4788236782273305e-01  4.3957397435969575e-01  4.6781143028937555e-01  5.2227945738633319e-01  5.5963306830707404e-01  5.7216166186255391e-01  5.7315886068571265e-01  5.7240588713504592e-01  5.4214424801045791e-01  5.4135917155732438e-01  5.3891051318748795e-01  5.3487563578928210e-01  5.2987243773030523e-01  5.2481126104107922e-01  5.2043795226447231e-01  5.1708596258211614e-01  5.1462354160514145e-01  5.1252381603471964e-01  5.1004740525743752e-01  5.0648275497411432e-01  5.0136074604718661e-01  4.9460159364135031e-01  4.8658194821948786e-01  4.7810320279108981e-01  4.7024416156871152e-01  4.6411564532793198e-01  4.6058180200237903e-01  4.6003727802093541e-01  4.6231056229268808e-01  4.6671610049054846e-01  4.7223283822570383e-01  4.7776034177460769e-01  4.8239018553997048e-01  4.8562483779929733e-01  4.8748489428434894e-01  4.8847351733913635e-01  4.8940755566749983e-01  4.9116314406308381e-01  4.9440647002957483e-01  4.9938156407438788e-01  5.0580724806270383e-01  5.1290331320071836e-01  5.1953942204622139e-01  5.2449616259684839e-01  5.2683104141885206e-01  5.2628995867054218e-01  5.2355229485113253e-01  5.1994931813543488e-01  5.1658304606388405e-01  5.1383716619755215e-01  5.1213298397444740e-01  5.1225934243478133e-01  5.1445834229134146e-01  5.1808048812074148e-01  5.2206033232315596e-01  5.2535283720552428e-01  5.2717762504498933e-01  5.2719258249900591e-01  5.2557840331501471e-01  5.2297383454961999e-01  5.2028480365608576e-01  5.1844620056345980e-01  5.1819156221646245e-01  5.1985752155083320e-01  5.2326140445742464e-01  5.2770753456222319e-01  5.3215923146826649e-01  5.3554380148936498e-01  5.3705638140663892e-01  5.3629930610339782e-01  5.3324272415770679e-01  5.2818928571051527e-01  5.2189383190340932e-01  5.1568905885983474e-01  5.1120667845502965e-01  5.0957686198554819e-01  5.1075386093547859e-01  5.1365576533014679e-01  5.1684130005966278e-01  5.1904988029432719e-01  5.1942548460721172e-01  5.1759897056813009e-01  5.1372523786374291e-01  5.0844604387370529e-01  5.0274645894343373e-01  4.9772121857403007e-01  4.9430263426078602e-01  4.9301918033112996e-01  4.9385420845570188e-01  4.9625005228768049e-01  4.9925713044307790e-01  5.0178167317154709e-01  5.0286241361921757e-01  5.0190981889070840e-01  4.9885495218127340e-01  4.9416467271394487e-01  4.8868885430990650e-01  4.8332175806988370e-01  4.7849662864374065e-01  4.7364640728059687e-01  4.6702058894389881e-01  4.5654918966039326e-01  4.4227779338171208e-01  4.2974721617090017e-01  4.2948957905352236e-01  4.4561547101398719e-01  4.7210965101513919e-01  4.9747544840855695e-01  5.0809898700094902e-01  5.1431154247305833e-01  5.1403391396719333e-01  5.1312942354694613e-01  5.1157584005082191e-01  5.0964377457305043e-01  5.0782302882716901e-01  5.0655839008452130e-01  5.0604123581608584e-01  5.0613268546690415e-01  5.0640364589217202e-01  5.0626462854463927e-01  5.0514137204588516e-01  5.0264277675452906e-01  4.9867957095420373e-01  4.9350770012962802e-01  4.8768523398666758e-01  4.8195302924300620e-01  4.7706803498949441e-01  4.7362597736159134e-01  4.7191828418822590e-01  4.7187244524850525e-01  4.7309817191067138e-01  4.7501295307603181e-01  4.7699964275612938e-01  4.7856259122551814e-01  4.7945705404933125e-01  4.7975900234877061e-01  4.7984633303457175e-01  4.8029028626042974e-01  4.8168927342001155e-01  4.8449383041784383e-01  4.8886805304785630e-01  4.9461987891629983e-01  5.0121592515618185e-01  5.0787837226425359e-01  5.1374809935667665e-01  5.1809189303463243e-01  5.2051807560740515e-01  5.2113566665834465e-01  5.2057323893118479e-01  5.1980351741772202e-01  5.1980315084573903e-01  5.2117973664814965e-01  5.2396102629847074e-01  5.2765925674596093e-01  5.3151195496721682e-01  5.3471579028311211e-01  5.3659736000407843e-01  5.3676629128016706e-01  5.3523092872887112e-01  5.3237866144903234e-01  5.2880413678596561e-01  5.2512072664409271e-01  5.2187205902608746e-01  5.1949661921967927e-01  5.1825296926371411e-01  5.1811992891814307e-01  5.1875756287633679e-01  5.1958284468617977e-01  5.1994184602244220e-01  5.1930361031813488e-01  5.1739367788232771e-01  5.1424217824517726e-01  5.1018841471362675e-01  5.0586995301781168e-01  5.0213786195494403e-01  4.9982239805677692e-01  4.9941011206489866e-01  5.0083433394837207e-01  5.0351760405898405e-01  5.0660470703274096e-01  5.0922800741785434e-01  5.1070931937666175e-01  5.1068503433267642e-01  5.0916107955809631e-01  5.0649398683598978e-01  5.0329398201576991e-01  5.0026222739472015e-01  4.9799966712207633e-01  4.9684411843247156e-01  4.9678603928029025e-01  4.9748042339725335e-01  4.9833930450337299e-01  4.9867880095367356e-01  4.9789583415823790e-01  4.9564107959607162e-01  4.9193657106129429e-01  4.8718413280295719e-01  4.8204635985154159e-01  4.7722911394042833e-01  4.7320695590384243e-01  4.6993624750751439e-01  4.6667054203900415e-01  4.6209800413407859e-01  4.5497895903079200e-01  4.4512717557432646e-01  4.3419512173003383e-01  4.2581426982572163e-01  4.2398488153211045e-01  4.2876244249693091e-01  4.3245752973099216e-01  4.8796371177836212e-01  4.8804139547391578e-01  4.8825006539570831e-01  4.8858861984607066e-01  4.8917307290330619e-01  4.9020667756751723e-01  4.9185851105399114e-01  4.9414544209935879e-01  4.9687480410101598e-01  4.9967462505064919e-01  5.0209331769933374e-01  5.0370591391546848e-01  5.0418898975015602e-01  5.0338234789574288e-01  5.0134358723435335e-01  4.9835588208124326e-01  4.9486616184299292e-01  4.9137869452927696e-01  4.8832787608693190e-01  4.8594923145201108e-01  4.8421681467664057e-01  4.8291143082203825e-01  4.8176438592436216e-01  4.8056272553008444e-01  4.7919143040920659e-01  4.7766059582897324e-01  4.7613224654733810e-01  4.7491373744200405e-01  4.7439883192370708e-01  4.7497718452791915e-01  4.7694077553168718e-01  4.8040332735863217e-01  4.8524931145359979e-01  4.9113408510088197e-01  4.9754263563525203e-01  5.0389067394434583e-01  5.0964398910971498e-01  5.1443986981838241e-01  5.1819376901257397e-01  5.2115169914351622e-01  5.2382491498751704e-01  5.2677488527395533e-01  5.3033262397211733e-01  5.3442806621405370e-01  5.3862417460780476e-01  5.4228199515698139e-01  5.4474485112328308e-01  5.4551745614108127e-01  5.4443898871605989e-01  5.4175243024483710e-01  5.3796139875973603e-01  5.3357309061627056e-01  5.2895729238011813e-01  5.2438669832777340e-01  5.2011009508687034e-01  5.1632995551158301e-01  5.1311775791992909e-01  5.1037210985355208e-01  5.0785885287523447e-01  5.0530302163196428e-01  5.0248872547528878e-01  4.9933528509407354e-01  4.9593663473796001e-01  4.9256414531793813e-01  4.8962942728073272e-01  4.8759647717879551e-01  4.8684979193240385e-01  4.8756269640659489e-01  4.8962592599865551e-01  4.9266716939211841e-01  4.9614512174758796e-01  4.9947621618067822e-01  5.0215716445353420e-01  5.0386265576999523e-01  5.0450451782734973e-01  5.0423411839997967e-01  5.0337227338784352e-01  5.0227944577592931e-01  5.0122525629271264e-01  5.0033247790725588e-01  4.9960598444664756e-01  4.9896295639545368e-01  4.9820172831667903e-01  4.9697764687476048e-01  4.9489864381521897e-01  4.9173132355108040e-01  4.8756788922863364e-01  4.8281674765623955e-01  4.7803579340917457e-01  4.7374360896810874e-01  4.7029613308014745e-01  4.6780311721708701e-01  4.6604943290083839e-01  4.6448180553704205e-01  4.6236441950719842e-01  4.5911714429029443e-01  4.5474255933436109e-01  4.5017429258239361e-01  4.4711078494681133e-01  4.4651861381069835e-01  4.4686991061413500e-01  4.6474081489460095e-01  4.6504856771310388e-01  4.6600355760387158e-01  4.6767856470380986e-01  4.7014896451467947e-01  4.7347089455174102e-01  4.7765801893437787e-01  4.8261583254639034e-01  4.8805983939254571e-01  4.9353695204286080e-01  4.9859248780750232e-01  5.0291529247738442e-01  5.0630670518851173e-01  5.0858550008720360e-01  5.0960932789188507e-01  5.0937527783724501e-01  5.0806376658118224e-01  5.0600338632642849e-01  5.0357704258229630e-01  5.0105201884318640e-01  4.9843264492068212e-01  4.95531100269