<?xml version="1.0"?>
<VTKFile type="UnstructuredGrid"  version="0.1"  >
<UnstructuredGrid>
<Piece  NumberOfPoints="20201" NumberOfCells="40000">
<Points>
<DataArray  type="Float64"  NumberOfComponents="3"  format="ascii">0 0 0  2 0 0  4 0 0  6 0 0  8 0 0  10 0 0  12 0 0  14 0 0  16 0 0  18 0 0  20 0 0  22 0 0  24 0 0  26 0 0  28 0 0  30 0 0  32 0 0  34 0 0  36 0 0  38 0 0  40 0 0  42 0 0  44 0 0  46 0 0  48 0 0  50 0 0  52 0 0  54 0 0  56 0 0  58 0 0  60 0 0  62 0 0  64 0 0  66 0 0  68 0 0  70 0 0  72 0 0  74 0 0  76 0 0  78 0 0  80 0 0  82 0 0  84 0 0  86 0 0  88 0 0  90 0 0  92 0 0  94 0 0  96 0 0  98 0 0  100 0 0  102 0 0  104 0 0  106 0 0  108 0 0  110 0 0  112 0 0  114 0 0  116 0 0  118 0 0  120 0 0  122 0 0  124 0 0  126 0 0  128 0 0  130 0 0  132 0 0  134 0 0  136 0 0  138 0 0  140 0 0  142 0 0  144 0 0  146 0 0  148 0 0  150 0 0  152 0 0  154 0 0  156 0 0  158 0 0  160 0 0  162 0 0  164 0 0  166 0 0  168 0 0  170 0 0  172 0 0  174 0 0  176 0 0  178 0 0  180 0 0  182 0 0  184 0 0  186 0 0  188 0 0  190 0 0  192 0 0  194 0 0  196 0 0  198 0 0  200 0 0  0 2 0  2 2 0  4 2 0  6 2 0  8 2 0  10 2 0  12 2 0  14 2 0  16 2 0  18 2 0  20 2 0  22 2 0  24 2 0  26 2 0  28 2 0  30 2 0  32 2 0  34 2 0  36 2 0  38 2 0  40 2 0  42 2 0  44 2 0  46 2 0  48 2 0  50 2 0  52 2 0  54 2 0  56 2 0  58 2 0  60 2 0  62 2 0  64 2 0  66 2 0  68 2 0  70 2 0  72 2 0  74 2 0  76 2 0  78 2 0  80 2 0  82 2 0  84 2 0  86 2 0  88 2 0  90 2 0  92 2 0  94 2 0  96 2 0  98 2 0  100 2 0  102 2 0  104 2 0  106 2 0  108 2 0  110 2 0  112 2 0  114 2 0  116 2 0  118 2 0  120 2 0  122 2 0  124 2 0  126 2 0  128 2 0  130 2 0  132 2 0  134 2 0  136 2 0  138 2 0  140 2 0  142 2 0  144 2 0  146 2 0  148 2 0  150 2 0  152 2 0  154 2 0  156 2 0  158 2 0  160 2 0  162 2 0  164 2 0  166 2 0  168 2 0  170 2 0  172 2 0  174 2 0  176 2 0  178 2 0  180 2 0  182 2 0  184 2 0  186 2 0  188 2 0  190 2 0  192 2 0  194 2 0  196 2 0  198 2 0  200 2 0  0 4 0  2 4 0  4 4 0  6 4 0  8 4 0  10 4 0  12 4 0  14 4 0  16 4 0  18 4 0  20 4 0  22 4 0  24 4 0  26 4 0  28 4 0  30 4 0  32 4 0  34 4 0  36 4 0  38 4 0  40 4 0  42 4 0  44 4 0  46 4 0  48 4 0  50 4 0  52 4 0  54 4 0  56 4 0  58 4 0  60 4 0  62 4 0  64 4 0  66 4 0  68 4 0  70 4 0  72 4 0  74 4 0  76 4 0  78 4 0  80 4 0  82 4 0  84 4 0  86 4 0  88 4 0  90 4 0  92 4 0  94 4 0  96 4 0  98 4 0  100 4 0  102 4 0  104 4 0  106 4 0  108 4 0  110 4 0  112 4 0  114 4 0  116 4 0  118 4 0  120 4 0  122 4 0  124 4 0  126 4 0  128 4 0  130 4 0  132 4 0  134 4 0  136 4 0  138 4 0  140 4 0  142 4 0  144 4 0  146 4 0  148 4 0  150 4 0  152 4 0  154 4 0  156 4 0  158 4 0  160 4 0  162 4 0  164 4 0  166 4 0  168 4 0  170 4 0  172 4 0  174 4 0  176 4 0  178 4 0  180 4 0  182 4 0  184 4 0  186 4 0  188 4 0  190 4 0  192 4 0  194 4 0  196 4 0  198 4 0  200 4 0  0 6 0  2 6 0  4 6 0  6 6 0  8 6 0  10 6 0  12 6 0  14 6 0  16 6 0  18 6 0  20 6 0  22 6 0  24 6 0  26 6 0  28 6 0  30 6 0  32 6 0  34 6 0  36 6 0  38 6 0  40 6 0  42 6 0  44 6 0  46 6 0  48 6 0  50 6 0  52 6 0  54 6 0  56 6 0  58 6 0  60 6 0  62 6 0  64 6 0  66 6 0  68 6 0  70 6 0  72 6 0  74 6 0  76 6 0  78 6 0  80 6 0  82 6 0  84 6 0  86 6 0  88 6 0  90 6 0  92 6 0  94 6 0  96 6 0  98 6 0  100 6 0  102 6 0  104 6 0  106 6 0  108 6 0  110 6 0  112 6 0  114 6 0  116 6 0  118 6 0  120 6 0  122 6 0  124 6 0  126 6 0  128 6 0  130 6 0  132 6 0  134 6 0  136 6 0  138 6 0  140 6 0  142 6 0  144 6 0  146 6 0  148 6 0  150 6 0  152 6 0  154 6 0  156 6 0  158 6 0  160 6 0  162 6 0  164 6 0  166 6 0  168 6 0  170 6 0  172 6 0  174 6 0  176 6 0  178 6 0  180 6 0  182 6 0  184 6 0  186 6 0  188 6 0  190 6 0  192 6 0  194 6 0  196 6 0  198 6 0  200 6 0  0 8 0  2 8 0  4 8 0  6 8 0  8 8 0  10 8 0  12 8 0  14 8 0  16 8 0  18 8 0  20 8 0  22 8 0  24 8 0  26 8 0  28 8 0  30 8 0  32 8 0  34 8 0  36 8 0  38 8 0  40 8 0  42 8 0  44 8 0  46 8 0  48 8 0  50 8 0  52 8 0  54 8 0  56 8 0  58 8 0  60 8 0  62 8 0  64 8 0  66 8 0  68 8 0  70 8 0  72 8 0  74 8 0  76 8 0  78 8 0  80 8 0  82 8 0  84 8 0  86 8 0  88 8 0  90 8 0  92 8 0  94 8 0  96 8 0  98 8 0  100 8 0  102 8 0  104 8 0  106 8 0  108 8 0  110 8 0  112 8 0  114 8 0  116 8 0  118 8 0  120 8 0  122 8 0  124 8 0  126 8 0  128 8 0  130 8 0  132 8 0  134 8 0  136 8 0  138 8 0  140 8 0  142 8 0  144 8 0  146 8 0  148 8 0  150 8 0  152 8 0  154 8 0  156 8 0  158 8 0  160 8 0  162 8 0  164 8 0  166 8 0  168 8 0  170 8 0  172 8 0  174 8 0  176 8 0  178 8 0  180 8 0  182 8 0  184 8 0  186 8 0  188 8 0  190 8 0  192 8 0  194 8 0  196 8 0  198 8 0  200 8 0  0 10 0  2 10 0  4 10 0  6 10 0  8 10 0  10 10 0  12 10 0  14 10 0  16 10 0  18 10 0  20 10 0  22 10 0  24 10 0  26 10 0  28 10 0  30 10 0  32 10 0  34 10 0  36 10 0  38 10 0  40 10 0  42 10 0  44 10 0  46 10 0  48 10 0  50 10 0  52 10 0  54 10 0  56 10 0  58 10 0  60 10 0  62 10 0  64 10 0  66 10 0  68 10 0  70 10 0  72 10 0  74 10 0  76 10 0  78 10 0  80 10 0  82 10 0  84 10 0  86 10 0  88 10 0  90 10 0  92 10 0  94 10 0  96 10 0  98 10 0  100 10 0  102 10 0  104 10 0  106 10 0  108 10 0  110 10 0  112 10 0  114 10 0  116 10 0  118 10 0  120 10 0  122 10 0  124 10 0  126 10 0  128 10 0  130 10 0  132 10 0  134 10 0  136 10 0  138 10 0  140 10 0  142 10 0  144 10 0  146 10 0  148 10 0  150 10 0  152 10 0  154 10 0  156 10 0  158 10 0  160 10 0  162 10 0  164 10 0  166 10 0  168 10 0  170 10 0  172 10 0  174 10 0  176 10 0  178 10 0  180 10 0  182 10 0  184 10 0  186 10 0  188 10 0  190 10 0  192 10 0  194 10 0  196 10 0  198 10 0  200 10 0  0 12 0  2 12 0  4 12 0  6 12 0  8 12 0  10 12 0  12 12 0  14 12 0  16 12 0  18 12 0  20 12 0  22 12 0  24 12 0  26 12 0  28 12 0  30 12 0  32 12 0  34 12 0  36 12 0  38 12 0  40 12 0  42 12 0  44 12 0  46 12 0  48 12 0  50 12 0  52 12 0  54 12 0  56 12 0  58 12 0  60 12 0  62 12 0  64 12 0  66 12 0  68 12 0  70 12 0  72 12 0  74 12 0  76 12 0  78 12 0  80 12 0  82 12 0  84 12 0  86 12 0  88 12 0  90 12 0  92 12 0  94 12 0  96 12 0  98 12 0  100 12 0  102 12 0  104 12 0  106 12 0  108 12 0  110 12 0  112 12 0  114 12 0  116 12 0  118 12 0  120 12 0  122 12 0  124 12 0  126 12 0  128 12 0  130 12 0  132 12 0  134 12 0  136 12 0  138 12 0  140 12 0  142 12 0  144 12 0  146 12 0  148 12 0  150 12 0  152 12 0  154 12 0  156 12 0  158 12 0  160 12 0  162 12 0  164 12 0  166 12 0  168 12 0  170 12 0  172 12 0  174 12 0  176 12 0  178 12 0  180 12 0  182 12 0  184 12 0  186 12 0  188 12 0  190 12 0  192 12 0  194 12 0  196 12 0  198 12 0  200 12 0  0 14 0  2 14 0  4 14 0  6 14 0  8 14 0  10 14 0  12 14 0  14 14 0  16 14 0  18 14 0  20 14 0  22 14 0  24 14 0  26 14 0  28 14 0  30 14 0  32 14 0  34 14 0  36 14 0  38 14 0  40 14 0  42 14 0  44 14 0  46 14 0  48 14 0  50 14 0  52 14 0  54 14 0  56 14 0  58 14 0  60 14 0  62 14 0  64 14 0  66 14 0  68 14 0  70 14 0  72 14 0  74 14 0  76 14 0  78 14 0  80 14 0  82 14 0  84 14 0  86 14 0  88 14 0  90 14 0  92 14 0  94 14 0  96 14 0  98 14 0  100 14 0  102 14 0  104 14 0  106 14 0  108 14 0  110 14 0  112 14 0  114 14 0  116 14 0  118 14 0  120 14 0  122 14 0  124 14 0  126 14 0  128 14 0  130 14 0  132 14 0  134 14 0  136 14 0  138 14 0  140 14 0  142 14 0  144 14 0  146 14 0  148 14 0  150 14 0  152 14 0  154 14 0  156 14 0  158 14 0  160 14 0  162 14 0  164 14 0  166 14 0  168 14 0  170 14 0  172 14 0  174 14 0  176 14 0  178 14 0  180 14 0  182 14 0  184 14 0  186 14 0  188 14 0  190 14 0  192 14 0  194 14 0  196 14 0  198 14 0  200 14 0  0 16 0  2 16 0  4 16 0  6 16 0  8 16 0  10 16 0  12 16 0  14 16 0  16 16 0  18 16 0  20 16 0  22 16 0  24 16 0  26 16 0  28 16 0  30 16 0  32 16 0  34 16 0  36 16 0  38 16 0  40 16 0  42 16 0  44 16 0  46 16 0  48 16 0  50 16 0  52 16 0  54 16 0  56 16 0  58 16 0  60 16 0  62 16 0  64 16 0  66 16 0  68 16 0  70 16 0  72 16 0  74 16 0  76 16 0  78 16 0  80 16 0  82 16 0  84 16 0  86 16 0  88 16 0  90 16 0  92 16 0  94 16 0  96 16 0  98 16 0  100 16 0  102 16 0  104 16 0  106 16 0  108 16 0  110 16 0  112 16 0  114 16 0  116 16 0  118 16 0  120 16 0  122 16 0  124 16 0  126 16 0  128 16 0  130 16 0  132 16 0  134 16 0  136 16 0  138 16 0  140 16 0  142 16 0  144 16 0  146 16 0  148 16 0  150 16 0  152 16 0  154 16 0  156 16 0  158 16 0  160 16 0  162 16 0  164 16 0  166 16 0  168 16 0  170 16 0  172 16 0  174 16 0  176 16 0  178 16 0  180 16 0  182 16 0  184 16 0  186 16 0  188 16 0  190 16 0  192 16 0  194 16 0  196 16 0  198 16 0  200 16 0  0 18 0  2 18 0  4 18 0  6 18 0  8 18 0  10 18 0  12 18 0  14 18 0  16 18 0  18 18 0  20 18 0  22 18 0  24 18 0  26 18 0  28 18 0  30 18 0  32 18 0  34 18 0  36 18 0  38 18 0  40 18 0  42 18 0  44 18 0  46 18 0  48 18 0  50 18 0  52 18 0  54 18 0  56 18 0  58 18 0  60 18 0  62 18 0  64 18 0  66 18 0  68 18 0  70 18 0  72 18 0  74 18 0  76 18 0  78 18 0  80 18 0  82 18 0  84 18 0  86 18 0  88 18 0  90 18 0  92 18 0  94 18 0  96 18 0  98 18 0  100 18 0  102 18 0  104 18 0  106 18 0  108 18 0  110 18 0  112 18 0  114 18 0  116 18 0  118 18 0  120 18 0  122 18 0  124 18 0  126 18 0  128 18 0  130 18 0  132 18 0  134 18 0  136 18 0  138 18 0  140 18 0  142 18 0  144 18 0  146 18 0  148 18 0  150 18 0  152 18 0  154 18 0  156 18 0  158 18 0  160 18 0  162 18 0  164 18 0  166 18 0  168 18 0  170 18 0  172 18 0  174 18 0  176 18 0  178 18 0  180 18 0  182 18 0  184 18 0  186 18 0  188 18 0  190 18 0  192 18 0  194 18 0  196 18 0  198 18 0  200 18 0  0 20 0  2 20 0  4 20 0  6 20 0  8 20 0  10 20 0  12 20 0  14 20 0  16 20 0  18 20 0  20 20 0  22 20 0  24 20 0  26 20 0  28 20 0  30 20 0  32 20 0  34 20 0  36 20 0  38 20 0  40 20 0  42 20 0  44 20 0  46 20 0  48 20 0  50 20 0  52 20 0  54 20 0  56 20 0  58 20 0  60 20 0  62 20 0  64 20 0  66 20 0  68 20 0  70 20 0  72 20 0  74 20 0  76 20 0  78 20 0  80 20 0  82 20 0  84 20 0  86 20 0  88 20 0  90 20 0  92 20 0  94 20 0  96 20 0  98 20 0  100 20 0  102 20 0  104 20 0  106 20 0  108 20 0  110 20 0  112 20 0  114 20 0  116 20 0  118 20 0  120 20 0  122 20 0  124 20 0  126 20 0  128 20 0  130 20 0  132 20 0  134 20 0  136 20 0  138 20 0  140 20 0  142 20 0  144 20 0  146 20 0  148 20 0  150 20 0  152 20 0  154 20 0  156 20 0
[...]
<PointData  Scalars="f_271-0"> 
<DataArray  type="Float64"  Name="f_271-0"  format="ascii">5.2974138314612873e-01  5.2946141394159973e-01  5.2863286782093055e-01  5.2728861691493478e-01  5.2547967796699802e-01  5.2327043372872151e-01  5.2073345696348605e-01  5.1794496018414649e-01  5.1498163821370102e-01  5.1191922336416551e-01  5.0883255701629770e-01  5.0579653572352268e-01  5.0288703359868936e-01  5.0018090380290980e-01  4.9775442050819202e-01  4.9567997098311178e-01  4.9402132746674166e-01  4.9282828270920098e-01  4.9213170034859588e-01  4.9194003887850685e-01  4.9223815066224713e-01  4.9298869902839632e-01  4.9413599255581042e-01  4.9561154287289316e-01  4.9734033216071688e-01  4.9924670373876212e-01  5.0125897276512588e-01  5.0331223695532401e-01  5.0534934268747977e-01  5.0732040386964050e-01  5.0918156848354368e-01  5.1089381396946110e-01  5.1242242051799325e-01  5.1373747130235881e-01  5.1481534985638100e-01  5.1564084658898135e-01  5.1620923024139342e-01  5.1652753042450017e-01  5.1661431675789604e-01  5.1649741625967716e-01  5.1620922891082555e-01  5.1577951566989300e-01  5.1522567189735347e-01  5.1454048759167725e-01  5.1367716053307511e-01  5.1253080127372042e-01  5.1091478092698184e-01  5.0852891338630246e-01  5.0491437170358522e-01  4.9938680563270610e-01  4.9093353369067821e-01  4.7806056538067182e-01  4.5876068773677603e-01  4.3463843335834185e-01  4.6564622209789913e-01  6.6073637986313261e-01  7.4523941590299314e-01  7.5661830738765123e-01  7.6011529812282874e-01  7.6198523352277037e-01  7.6098317990390973e-01  7.3549875136362897e-01  6.1516100537462326e-01  6.9183013772630686e-01  7.4878581322917392e-01  7.5245157824280651e-01  7.5166073299617131e-01  7.5034132429585965e-01  7.4866528293579104e-01  7.4660478656824536e-01  7.4362119869438992e-01  7.3153925559837907e-01  6.3593385056326146e-01  4.4208516011845528e-01  4.1723802728182852e-01  4.4070525676382988e-01  4.5977036305267244e-01  4.7284681407970569e-01  4.8145729627006967e-01  4.8676766675375438e-01  4.8954676250332391e-01  4.9025422305287586e-01  4.8910379853238833e-01  4.8610578420622114e-01  4.8109379973368915e-01  4.7373650085620217e-01  4.6353032539352307e-01  4.4976769666734912e-01  4.3156136123799982e-01  4.0993624862674771e-01  4.2312185477206565e-01  6.0281485234456089e-01  7.2113272115305360e-01  7.3195718805704113e-01  7.2812874650426951e-01  7.2321638472540739e-01  7.1855149717627742e-01  7.1454145677851544e-01  7.1146506513173013e-01  7.0953083326833499e-01  7.0887093359694742e-01  5.2916339457074557e-01  5.2889001251690893e-01  5.2808098357686473e-01  5.2676846312622294e-01  5.2500232429275728e-01  5.2284544751500461e-01  5.2036862548514839e-01  5.1764609643898329e-01  5.1475246462413504e-01  5.1176132305962918e-01  5.0874538188993956e-01  5.0577746364607146e-01  5.0293147251660464e-01  5.0028244587670956e-01  4.9790505288939191e-01  4.9587034976989414e-01  4.9424111727734632e-01  4.9306655676484329e-01  4.9237738656307634e-01  4.9218238839995959e-01  4.9246719881162732e-01  4.9319568627628046e-01  4.9431371573862204e-01  4.9575461380431052e-01  4.9744533069832325e-01  4.9931222320080410e-01  5.0128556529767287e-01  5.0330227343633482e-01  5.0530680525188243e-01  5.0725062930192255e-01  5.0909095846800678e-01  5.1078952483523510e-01  5.1231204196354541e-01  5.1362870154982554e-01  5.1471567414374708e-01  5.1555722675881477e-01  5.1614781510006169e-01  5.1649339925261184e-01  5.1661127182206279e-01  5.1652784465904966e-01  5.1627406008614218e-01  5.1587830923859379e-01  5.1535688275971125e-01  5.1470197484464564e-01  5.1386704053205867e-01  5.1274880685555446e-01  5.1116440537932761e-01  5.0882084486326573e-01  5.0527218290439024e-01  4.9985683364900713e-01  4.9160299704793037e-01  4.7909168125819840e-01  4.6043182734327692e-01  4.3649757522738353e-01  4.5495047702223340e-01  6.3787241597118349e-01  7.4099265047009899e-01  7.5613332243686715e-01  7.6001715192179864e-01  7.6182305763549629e-01  7.6003962882362441e-01  7.2848692680247806e-01  5.9636107083619760e-01  6.8606996217250737e-01  7.4764255577336935e-01  7.5207678607282991e-01  7.5141507591598067e-01  7.5011964225781635e-01  7.4844799947100926e-01  7.4637859559339337e-01  7.4313309656684823e-01  7.2769487213107398e-01  6.1590393467841564e-01  4.3398412422976357e-01  4.1875704602935954e-01  4.4209157763210433e-01  4.6065343724995478e-01  4.7341560243370789e-01  4.8183547332873494e-01  4.8703101958826778e-01  4.8974414880041328e-01  4.9042004740804335e-01  4.8926590445938661e-01  4.8629112739332697e-01  4.8133332678256491e-01  4.7407048171869015e-01  4.6401592666771924e-01  4.5049196419556209e-01  4.3265567905569757e-01  4.1120633799450518e-01  4.1602493503208415e-01  5.7633457123114862e-01  7.1456913782988440e-01  7.3120587129563908e-01  7.2804581094752507e-01  7.2327564769214270e-01  7.1869667559708905e-01  7.1475273041759724e-01  7.1172519167539550e-01  7.0982125716565669e-01  7.0917166812831578e-01  5.2747241612281925e-01  5.2721838912178609e-01  5.2646671081759056e-01  5.2524743947443675e-01  5.2360710056235760e-01  5.2160417379172452e-01  5.1930423294508743e-01  5.1677572227877300e-01  5.1408710457108209e-01  5.1130568239815088e-01  5.0849789443152049e-01  5.0573045705789210e-01  5.0307147357356075e-01  5.0059063457823672e-01  4.9835788404988007e-01  4.9644036030808997e-01  4.9489792544815869e-01  4.9377803772080980e-01  4.9311098150703331e-01  4.9290647850042807e-01  4.9315245635123139e-01  4.9381630892658107e-01  4.9484845730786375e-01  4.9618754493399303e-01  4.9776629162367908e-01  4.9951696202591750e-01  5.0137558334278876e-01  5.0328441952301084e-01  5.0519267109021726e-01  5.0705579887010199e-01  5.0883415804889498e-01  5.1049171097404988e-01  5.1199545573359384e-01  5.1331591176720248e-01  5.1442863061420485e-01  5.1531634698693229e-01  5.1597113322115051e-01  5.1639581351626862e-01  5.1660393672172777e-01  5.1661776651255431e-01  5.1646397193863036e-01  5.1616692467022662e-01  5.1573966289825968e-01  5.1517259772607460e-01  5.1441985552718195e-01  5.1338272559767906e-01  5.1188899525932607e-01  5.0966599394209555e-01  5.0630389733548464e-01  5.0120417633562886e-01  4.9350629181244293e-01  4.8199063993076646e-01  4.6506763994954919e-01  4.4249802281236028e-01  4.3661873065314288e-01  5.6064865040437561e-01  7.1607092340913658e-01  7.5229521007909950e-01  7.5889731115016967e-01  7.6050335200158548e-01  7.5467883341751874e-01  6.9582885139840189e-01  5.3530554531524577e-01  6.6151939971684359e-01  7.4298672726984560e-01  7.5090066275705747e-01  7.5073492457387958e-01  7.4950870317550278e-01  7.4781570278145659e-01  7.4557836071857042e-01  7.4065668028620424e-01  7.0924157583269754e-01  5.5122863707625391e-01  4.1893534544646821e-01  4.2363850890215271e-01  4.4602101811127287e-01  4.6317869360433483e-01  4.7505640140238997e-01  4.8293482750767536e-01  4.8780214428969826e-01  4.9032601774373685e-01  4.9091134565526395e-01  4.8974696655698424e-01  4.8683989990713200e-01  4.8203910111974457e-01  4.7504868060363542e-01  4.6542846336327515e-01  4.5258068720000066e-01  4.3577626781328832e-01  4.1513763775761464e-01  4.0471148962602693e-01  5.0238045334617976e-01  6.8316100282434977e-01  7.2691288266242404e-01  7.2741553671319503e-01  7.2336206751085852e-01  7.1907826638307992e-01  7.1533361263049444e-01  7.1244875567594490e-01  7.1063402275657805e-01  7.1001511836129461e-01  5.2479398208741201e-01  5.2457088991470979e-01  5.2391088423141596e-01  5.2284069964482249e-01  5.2140155083861361e-01  5.1964492633750903e-01  5.1762809447077507e-01  5.1541026079029528e-01  5.1305007567120853e-01  5.1060477276223382e-01  5.0813073734421976e-01  5.0568488803730482e-01  5.0332601655266895e-01  5.0111523185336171e-01  4.9911489722646069e-01  4.9738586818603125e-01  4.9598332586114807e-01  4.9495192644009806e-01  4.9432123950313439e-01  4.9410245878452042e-01  4.9428713301446842e-01  4.9484824109522790e-01  4.9574343242843255e-01  4.9691979699475242e-01  4.9831923420633439e-01  4.9988342455710311e-01  5.0155758251812277e-01  5.0329252963021753e-01  5.0504507348985694e-01  5.0677709285720651e-01  5.0845400667403229e-01  5.1004338183427589e-01  5.1151430379705332e-01  5.1283784285195666e-01  5.1398858175555706e-01  5.1494682316947249e-01  5.1570084749536271e-01  5.1624848836508719e-01  5.1659733877856306e-01  5.1676306559985996e-01  5.1676554100996919e-01  5.1662273280451709e-01  5.1634246493699931e-01  5.1591220377731384e-01  5.1528689629070112e-01  5.1437456295553519e-01  5.1301885105322131e-01  5.1097715361811435e-01  5.0789232694638964e-01  5.0325575536873046e-01  4.9636036621571727e-01  4.8624937423133868e-01  4.7172717351854776e-01  4.5207028885311218e-01  4.3322968418086488e-01  4.6512667744889813e-01  6.1779758725103140e-01  7.2052938285296886e-01  7.4639894334833135e-01  7.4770046044713689e-01  7.1969478602545256e-01  5.9139797404137395e-01  4.4871503302930921e-01  5.9267260892038742e-01  7.2632819676456783e-01  7.4768364604622672e-01  7.4948560982124779e-01  7.4850359863418381e-01  7.4654473952820366e-01  7.4279625817733408e-01  7.2868825007794380e-01  6.4437321687063009e-01  4.6384123967654362e-01  4.1391287783700736e-01  4.3171674672652000e-01  4.5189907994318196e-01  4.6701600959555634e-01  4.7759127299370047e-01  4.8465860240920716e-01  4.8902845842391868e-01  4.9126354534543304e-01  4.9171065304763023e-01  4.9053201860211809e-01  4.8773151339577253e-01  4.8317514219980423e-01  4.7660521930262650e-01  4.6764727452718685e-01  4.5581084775001612e-01  4.4051543414993549e-01  4.2150954055688034e-01  4.0308353851252865e-01  4.2699673627147067e-01  5.8755028067423720e-01  7.0370575674196301e-01  7.2331847202305721e-01  7.2272955726567234e-01  7.1941477106075324e-01  7.1608756127919793e-01  7.1346098257926405e-01  7.1180688504792244e-01  7.1124425694214399e-01  5.2132617381134527e-01  5.2114371656032221e-01  5.2060414836119129e-01  5.1972989197081998e-01  5.1855526209901270e-01  5.1712264482002801e-01  5.1547846647704654e-01  5.1366983703273750e-01  5.1174252200229342e-01  5.0974049754951145e-01  5.0770688356094651e-01  5.0568565297716850e-01  5.0372328806665212e-01  5.0186955625610064e-01  5.0017680961890187e-01  4.9869761292566439e-01  4.9748097050191725e-01  4.9656782997826265e-01  4.9598678389378709e-01  4.9575090329285970e-01  4.9585641595186197e-01  4.9628354170399286e-01  4.9699932061711916e-01  4.9796183765227564e-01  4.9912496804399675e-01  5.0044270790746226e-01  5.0187232317181263e-01  5.0337589610565647e-01  5.0492027699954678e-01  5.0647584543116264e-01  5.0801475016197783e-01  5.0950936760178478e-01  5.1093158840099695e-01  5.1225325535031441e-01  5.1344771533893296e-01  5.1449210698628278e-01  5.1536976244268784e-01  5.1607200232908523e-01  5.1659865279578954e-01  5.1695678444057525e-01  5.1715741231661394e-01  5.1721014156599754e-01  5.1711593067935613e-01  5.1685821868871018e-01  5.1639258822434009e-01  5.1563491351691071e-01  5.1444762610863903e-01  5.1262345149207922e-01  5.0986596353273173e-01  5.0576700050801349e-01  4.9978333869991326e-01  4.9122216405661173e-01  4.7927389909755036e-01  4.6328167417424954e-01  4.4434101414783844e-01  4.3227539037087809e-01  4.6776321643894925e-01  5.6974173084524549e-01  6.4260726629517895e-01  6.4334216371389730e-01  5.6429956205575982e-01  4.4329328251221867e-01  3.9717586284436357e-01  4.7390376417887847e-01  6.5369063437056285e-01  7.2960702138445754e-01  7.4320406251358617e-01  7.4408211911240885e-01  7.3985178692122877e-01  7.2449381167766314e-01  6.6037882869935582e-01  5.0554345760634567e-01  4.1733906893969575e-01  4.2199770497878697e-01  4.4183325527026723e-01  4.5896171507214129e-01  4.7173015575866661e-01  4.8077691716567938e-01  4.8687109837912435e-01  4.9063479089094769e-01  4.9251476796209315e-01  4.9279199615176195e-01  4.9159846645613375e-01  4.8893512218077945e-01  4.8468860776385320e-01  4.7864568391632645e-01  4.7050499473182611e-01  4.5988815129614474e-01  4.4636532969398174e-01  4.2960732054087669e-01  4.1056027416437246e-01  3.9874676351320093e-01  4.4737358545598321e-01  5.9717859916303895e-01  6.9138338369027075e-01  7.1467279510166604e-01  7.1736219436709825e-01  7.1595234340393443e-01  7.1415768658113521e-01  7.1292676026837143e-01  7.1250116578175138e-01  5.1732387239493149e-01  5.1718931946718638e-01  5.1679176406544980e-01  5.1614862757014179e-01  5.1528620530118174e-01  5.1423627395001870e-01  5.1303257857309437e-01  5.1170802657004610e-01  5.1029319511250870e-01  5.0881637798320967e-01  5.0730496058304253e-01  5.0578753504622165e-01  5.0429595127727800e-01  5.0286650175967962e-01  5.0153965819263246e-01  5.0035815923705618e-01  4.9936369158967614e-01  4.9859279566464132e-01  4.9807286057345584e-01  4.9781908946815695e-01  4.9783311068974229e-01  4.9810353524360501e-01  4.9860831329328936e-01  4.9931833620819088e-01  5.0020146879653360e-01  5.0122614243054187e-01  5.0236380241098988e-01  5.0358983414592084e-01  5.0488300175683531e-01  5.0622381110075798e-01  5.0759246017372761e-01  5.0896710395016365e-01  5.1032303005379365e-01  5.1163305938549397e-01  5.1286913113952159e-01  5.1400469572798224e-01  5.1501730006629409e-01  5.1589065385079536e-01  5.1661552035843417e-01  5.1718895334685955e-01  5.1761165119987318e-01  5.1788345778961631e-01  5.1799724450729900e-01  5.1793150911250962e-01  5.1764199852168691e-01  5.1705251934146401e-01  5.1604491675383568e-01  5.1444813421367730e-01  5.1202657345503355e-01  5.0846907191272683e-01  5.0338240430592485e-01  4.9629873299881749e-01  4.8671894282277950e-01  4.7425124498668914e-01  4.5901106963560739e-01  4.4285457944754053e-01  4.3158035584331184e-01  4.3660560119826097e-01  4.5273870109614794e-01  4.4964863616764361e-01  4.2343514739256555e-01  4.0210481886514238e-01  3.9405459993408287e-01  4.0519071831557246e-01  4.8674308820845341e-01  6.1610289095711257e-01  6.8057650491580857e-01  6.9341595079877516e-01  6.7425481864343750e-01  6.0745256259281077e-01  4.8986889251105076e-01  4.1983983721424889e-01  4.1846449574471867e-01  4.3548780761236505e-01  4.5264459222594577e-01  4.6647969565808811e-01  4.7688794683729208e-01  4.8435912463956782e-01  4.8942537778983569e-01  4.9253733064372118e-01  4.9403144281894745e-01  4.9412437763984735e-01  4.9291863945789388e-01  4.9041340710951487e-01  4.8651754311471707e-01  4.8106329399111364e-01  4.7382046880752687e-01  4.6451275243480655e-01  4.5284285941244701e-01  4.3855846695045930e-01  4.2172161497230864e-01  4.0416618034782803e-01  3.9521671909619860e-01  4.3199949973283619e-01  5.4106733682971142e-01  6.4064060089656227e-01  6.8581924167016695e-01  7.0205357693462089e-01  7.0744601026725262e-01  7.0909596656913521e-01  7.0945465827191756e-01  5.1307856413712893e-01  5.1299638086200527e-01  5.1275411444528696e-01  5.1236382541613590e-01  5.1184319133181722e-01  5.1121254655252879e-01  5.1049189878408086e-01  5.0969869568966208e-01  5.0884690253167875e-01  5.0794758835536402e-01  5.0701080133967436e-01  5.0604815488179622e-01  5.0507534009568755e-01  5.0411378229757775e-01  5.0319086869563368e-01  5.0233853760628444e-01  5.0159044187580160e-01  5.0097827122909055e-01  5.0052804355438962e-01  5.0025719538623992e-01  5.0017311207722337e-01  5.0027338784751008e-01  5.0054768598197197e-01  5.0098068828947429e-01  5.0155537789614690e-01  5.0225585133207096e-01  5.0306901328962350e-01  5.0398482508815701e-01  5.0499516935625222e-01  5.0609175491071223e-01  5.0726372412236997e-01  5.0849568236163412e-01  5.0976673708766995e-01  5.1105085395983829e-01  5.1231848586455120e-01  5.1353909763214267e-01  5.1468397245236341e-01  5.1572859320377629e-01  5.1665395217047472e-01  5.1744632925206679e-01  5.1809533983107170e-01  5.1859032526805726e-01  5.1891537947569055e-01  5.1904342633814438e-01  5.1892976461518825e-01  5.1850540164632408e-01  5.1767038460920789e-01  5.1628735815815041e-01  5.1417595639969371e-01  5.1110967832830312e-01  5.0681896487148759e-01  5.0100766122516616e-01  4.9339519315293034e-01  4.8380326582442551e-01  4.7231535433021132e-01  4.5952048393632067e-01  4.4680245988588313e-01  4.3599484787745291e-01  4.2824957112352335e-01  4.2281922757911283e-01  4.1845623533842846e-01  4.1423205850061501e-01  4.0917486618408910e-01  4.0458437756683818e-01  4.0854205944253708e-01  4.3735735537190029e-01  4.7778663462095700e-01  4.9365715378694353e-01  4.7346875802473987e-01  4.3602937321839136e-01  4.1512364478801800e-01  4.1974049165813365e-01  4.3420504071390342e-01  4.4964710058573598e-01  4.6309230133886620e-01  4.7389219008597006e-01  4.8213224712032099e-01  4.8811584210825565e-01  4.9218701367947737e-01  4.9465606833686510e-01  4.9576518056193808e-01  4.9567475626336382e-01  4.9446186047199109e-01  4.9212574512626578e-01  4.8859750000854463e-01  4.8375223135467971e-01  4.7742338536796702e-01  4.6942018751484410e-01  4.5955122266992460e-01  4.4766218357929161e-01  4.3371927808020544e-01  4.1804205579748827e-01  4.0220542350417443e-01  3.9122106659276479e-01  3.9994111996874521e-01  4.4493075831994083e-01  5.1713210509745300e-01  5.8319568827684576e-01  6.2300899016834077e-01  6.4148359666190413e-01  6.4673210702349182e-01  5.0889536809688063e-01  5.0886704083027723e-01  5.0878451600679209e-01  5.0865446545485071e-01  5.0848587678989310e-01  5.0828749487513480e-01  5.0806533875109106e-01  5.0782102242502025e-01  5.0755140175957658e-01  5.0724971912394323e-01  5.0690801607671709e-01  5.0652023883122721e-01  5.0608526304734180e-01  5.0560906593375621e-01  5.0510547467617550e-01  5.0459526883785200e-01  5.0410382052085034e-01  5.0365781506976692e-01  5.0328181484207291e-01  5.0299545329116280e-01  5.0281187120192150e-01  5.0273767812333092e-01  5.0277432614793183e-01  5.0292042341263232e-01  5.0317428412281195e-01  5.0353596908357467e-01  5.0400822443182747e-01  5.0459603351254967e-01  5.0530487474956121e-01  5.0613812668363900e-01  5.0709428951818081e-01  5.0816474363425412e-01  5.0933263066814738e-01  5.1057316150762899e-01  5.1185530332425500e-01  5.1314446366521305e-01  5.1440555247881314e-01  5.1560571209230988e-01  5.1671607128145980e-01  5.1771207637296324e-01  5.1857222658903079e-01  5.1927532665181142e-01  5.1979660320874543e-01  5.2010316522467137e-01  5.2014930383064240e-01  5.1987204788379582e-01  5.1918729300130728e-01  5.1798683356753517e-01  5.1613692189918847e-01  5.1347973885960441e-01  5.0984050249872859e-01  5.0504475816341599e-01  4.9895203784109249e-01  4.9151197663652763e-01  4.8284363913082629e-01  4.7332402846130617e-01  4.6362911880794649e-01  4.5463987687415347e-01  4.4712775512466185e-01  4.4134272425868848e-01  4.3678770494240243e-01  4.3248430252561959e-01  4.2756288091462913e-01  4.2181424460882322e-01  4.1616423977215344e-01  4.1240102270946732e-01  4.1200492131509642e-01  4.1307259025945353e-01  4.1400744666506989e-01  4.1782589899654704e-01  4.2645627681797560e-01  4.3817647160847739e-01  4.5073480086448908e-01  4.6247574100972161e-01  4.7259968769582966e-01  4.8083929910238749e-01  4.8721343744555307e-01  4.9188021147787120e-01  4.9504839951208202e-01  4.9692263567271189e-01  4.9767118170278785e-01  4.9740958362243820e-01  4.9619532257579024e-01  4.9402983846836185e-01  4.9086540424315839e-01  4.8661531688238119e-01  4.8116680887939617e-01  4.7439700841295829e-01  4.6619317908419217e-01  4.5647954078620523e-01  4.4525477164033406e-01  4.3265396736753675e-01  4.1905594612986519e-01  4.0535464023976825e-01  3.9326677361848433e-01  3.8617561359685720e-01  3.8917357446026951e-01  4.0327838587159309e-01  4.2156800435701169e-01  4.3562568540266844e-01  4.4075540425247123e-01  5.0506918813091473e-01  5.0509325135639549e-01  5.0516616936847936e-01  5.0528950356640479e-01  5.0546396860262288e-01  5.0568721676784456e-01  5.0595179284196889e-01  5.0624395633963526e-01  5.0654386486395120e-01  5.0682726884260842e-01  5.0706847535389432e-01  5.0724400093743927e-01  5.0733613925389254e-01  5.0733567013958958e-01  5.0724313193660986e-01  5.0706841846083872e-01  5.0682885820645462e-01  5.0654628495301168e-01  5.0624382660961131e-01  5.0594316874172118e-01  5.0566288546189808e-01  5.05418117924