<?xml version="1.0"?>
<VTKFile type="UnstructuredGrid"  version="0.1"  >
<UnstructuredGrid>
<Piece  NumberOfPoints="20201" NumberOfCells="40000">
<Points>
<DataArray  type="Float64"  NumberOfComponents="3"  format="ascii">0 0 0  2 0 0  4 0 0  6 0 0  8 0 0  10 0 0  12 0 0  14 0 0  16 0 0  18 0 0  20 0 0  22 0 0  24 0 0  26 0 0  28 0 0  30 0 0  32 0 0  34 0 0  36 0 0  38 0 0  40 0 0  42 0 0  44 0 0  46 0 0  48 0 0  50 0 0  52 0 0  54 0 0  56 0 0  58 0 0  60 0 0  62 0 0  64 0 0  66 0 0  68 0 0  70 0 0  72 0 0  74 0 0  76 0 0  78 0 0  80 0 0  82 0 0  84 0 0  86 0 0  88 0 0  90 0 0  92 0 0  94 0 0  96 0 0  98 0 0  100 0 0  102 0 0  104 0 0  106 0 0  108 0 0  110 0 0  112 0 0  114 0 0  116 0 0  118 0 0  120 0 0  122 0 0  124 0 0  126 0 0  128 0 0  130 0 0  132 0 0  134 0 0  136 0 0  138 0 0  140 0 0  142 0 0  144 0 0  146 0 0  148 0 0  150 0 0  152 0 0  154 0 0  156 0 0  158 0 0  160 0 0  162 0 0  164 0 0  166 0 0  168 0 0  170 0 0  172 0 0  174 0 0  176 0 0  178 0 0  180 0 0  182 0 0  184 0 0  186 0 0  188 0 0  190 0 0  192 0 0  194 0 0  196 0 0  198 0 0  200 0 0  0 2 0  2 2 0  4 2 0  6 2 0  8 2 0  10 2 0  12 2 0  14 2 0  16 2 0  18 2 0  20 2 0  22 2 0  24 2 0  26 2 0  28 2 0  30 2 0  32 2 0  34 2 0  36 2 0  38 2 0  40 2 0  42 2 0  44 2 0  46 2 0  48 2 0  50 2 0  52 2 0  54 2 0  56 2 0  58 2 0  60 2 0  62 2 0  64 2 0  66 2 0  68 2 0  70 2 0  72 2 0  74 2 0  76 2 0  78 2 0  80 2 0  82 2 0  84 2 0  86 2 0  88 2 0  90 2 0  92 2 0  94 2 0  96 2 0  98 2 0  100 2 0  102 2 0  104 2 0  106 2 0  108 2 0  110 2 0  112 2 0  114 2 0  116 2 0  118 2 0  120 2 0  122 2 0  124 2 0  126 2 0  128 2 0  130 2 0  132 2 0  134 2 0  136 2 0  138 2 0  140 2 0  142 2 0  144 2 0  146 2 0  148 2 0  150 2 0  152 2 0  154 2 0  156 2 0  158 2 0  160 2 0  162 2 0  164 2 0  166 2 0  168 2 0  170 2 0  172 2 0  174 2 0  176 2 0  178 2 0  180 2 0  182 2 0  184 2 0  186 2 0  188 2 0  190 2 0  192 2 0  194 2 0  196 2 0  198 2 0  200 2 0  0 4 0  2 4 0  4 4 0  6 4 0  8 4 0  10 4 0  12 4 0  14 4 0  16 4 0  18 4 0  20 4 0  22 4 0  24 4 0  26 4 0  28 4 0  30 4 0  32 4 0  34 4 0  36 4 0  38 4 0  40 4 0  42 4 0  44 4 0  46 4 0  48 4 0  50 4 0  52 4 0  54 4 0  56 4 0  58 4 0  60 4 0  62 4 0  64 4 0  66 4 0  68 4 0  70 4 0  72 4 0  74 4 0  76 4 0  78 4 0  80 4 0  82 4 0  84 4 0  86 4 0  88 4 0  90 4 0  92 4 0  94 4 0  96 4 0  98 4 0  100 4 0  102 4 0  104 4 0  106 4 0  108 4 0  110 4 0  112 4 0  114 4 0  116 4 0  118 4 0  120 4 0  122 4 0  124 4 0  126 4 0  128 4 0  130 4 0  132 4 0  134 4 0  136 4 0  138 4 0  140 4 0  142 4 0  144 4 0  146 4 0  148 4 0  150 4 0  152 4 0  154 4 0  156 4 0  158 4 0  160 4 0  162 4 0  164 4 0  166 4 0  168 4 0  170 4 0  172 4 0  174 4 0  176 4 0  178 4 0  180 4 0  182 4 0  184 4 0  186 4 0  188 4 0  190 4 0  192 4 0  194 4 0  196 4 0  198 4 0  200 4 0  0 6 0  2 6 0  4 6 0  6 6 0  8 6 0  10 6 0  12 6 0  14 6 0  16 6 0  18 6 0  20 6 0  22 6 0  24 6 0  26 6 0  28 6 0  30 6 0  32 6 0  34 6 0  36 6 0  38 6 0  40 6 0  42 6 0  44 6 0  46 6 0  48 6 0  50 6 0  52 6 0  54 6 0  56 6 0  58 6 0  60 6 0  62 6 0  64 6 0  66 6 0  68 6 0  70 6 0  72 6 0  74 6 0  76 6 0  78 6 0  80 6 0  82 6 0  84 6 0  86 6 0  88 6 0  90 6 0  92 6 0  94 6 0  96 6 0  98 6 0  100 6 0  102 6 0  104 6 0  106 6 0  108 6 0  110 6 0  112 6 0  114 6 0  116 6 0  118 6 0  120 6 0  122 6 0  124 6 0  126 6 0  128 6 0  130 6 0  132 6 0  134 6 0  136 6 0  138 6 0  140 6 0  142 6 0  144 6 0  146 6 0  148 6 0  150 6 0  152 6 0  154 6 0  156 6 0  158 6 0  160 6 0  162 6 0  164 6 0  166 6 0  168 6 0  170 6 0  172 6 0  174 6 0  176 6 0  178 6 0  180 6 0  182 6 0  184 6 0  186 6 0  188 6 0  190 6 0  192 6 0  194 6 0  196 6 0  198 6 0  200 6 0  0 8 0  2 8 0  4 8 0  6 8 0  8 8 0  10 8 0  12 8 0  14 8 0  16 8 0  18 8 0  20 8 0  22 8 0  24 8 0  26 8 0  28 8 0  30 8 0  32 8 0  34 8 0  36 8 0  38 8 0  40 8 0  42 8 0  44 8 0  46 8 0  48 8 0  50 8 0  52 8 0  54 8 0  56 8 0  58 8 0  60 8 0  62 8 0  64 8 0  66 8 0  68 8 0  70 8 0  72 8 0  74 8 0  76 8 0  78 8 0  80 8 0  82 8 0  84 8 0  86 8 0  88 8 0  90 8 0  92 8 0  94 8 0  96 8 0  98 8 0  100 8 0  102 8 0  104 8 0  106 8 0  108 8 0  110 8 0  112 8 0  114 8 0  116 8 0  118 8 0  120 8 0  122 8 0  124 8 0  126 8 0  128 8 0  130 8 0  132 8 0  134 8 0  136 8 0  138 8 0  140 8 0  142 8 0  144 8 0  146 8 0  148 8 0  150 8 0  152 8 0  154 8 0  156 8 0  158 8 0  160 8 0  162 8 0  164 8 0  166 8 0  168 8 0  170 8 0  172 8 0  174 8 0  176 8 0  178 8 0  180 8 0  182 8 0  184 8 0  186 8 0  188 8 0  190 8 0  192 8 0  194 8 0  196 8 0  198 8 0  200 8 0  0 10 0  2 10 0  4 10 0  6 10 0  8 10 0  10 10 0  12 10 0  14 10 0  16 10 0  18 10 0  20 10 0  22 10 0  24 10 0  26 10 0  28 10 0  30 10 0  32 10 0  34 10 0  36 10 0  38 10 0  40 10 0  42 10 0  44 10 0  46 10 0  48 10 0  50 10 0  52 10 0  54 10 0  56 10 0  58 10 0  60 10 0  62 10 0  64 10 0  66 10 0  68 10 0  70 10 0  72 10 0  74 10 0  76 10 0  78 10 0  80 10 0  82 10 0  84 10 0  86 10 0  88 10 0  90 10 0  92 10 0  94 10 0  96 10 0  98 10 0  100 10 0  102 10 0  104 10 0  106 10 0  108 10 0  110 10 0  112 10 0  114 10 0  116 10 0  118 10 0  120 10 0  122 10 0  124 10 0  126 10 0  128 10 0  130 10 0  132 10 0  134 10 0  136 10 0  138 10 0  140 10 0  142 10 0  144 10 0  146 10 0  148 10 0  150 10 0  152 10 0  154 10 0  156 10 0  158 10 0  160 10 0  162 10 0  164 10 0  166 10 0  168 10 0  170 10 0  172 10 0  174 10 0  176 10 0  178 10 0  180 10 0  182 10 0  184 10 0  186 10 0  188 10 0  190 10 0  192 10 0  194 10 0  196 10 0  198 10 0  200 10 0  0 12 0  2 12 0  4 12 0  6 12 0  8 12 0  10 12 0  12 12 0  14 12 0  16 12 0  18 12 0  20 12 0  22 12 0  24 12 0  26 12 0  28 12 0  30 12 0  32 12 0  34 12 0  36 12 0  38 12 0  40 12 0  42 12 0  44 12 0  46 12 0  48 12 0  50 12 0  52 12 0  54 12 0  56 12 0  58 12 0  60 12 0  62 12 0  64 12 0  66 12 0  68 12 0  70 12 0  72 12 0  74 12 0  76 12 0  78 12 0  80 12 0  82 12 0  84 12 0  86 12 0  88 12 0  90 12 0  92 12 0  94 12 0  96 12 0  98 12 0  100 12 0  102 12 0  104 12 0  106 12 0  108 12 0  110 12 0  112 12 0  114 12 0  116 12 0  118 12 0  120 12 0  122 12 0  124 12 0  126 12 0  128 12 0  130 12 0  132 12 0  134 12 0  136 12 0  138 12 0  140 12 0  142 12 0  144 12 0  146 12 0  148 12 0  150 12 0  152 12 0  154 12 0  156 12 0  158 12 0  160 12 0  162 12 0  164 12 0  166 12 0  168 12 0  170 12 0  172 12 0  174 12 0  176 12 0  178 12 0  180 12 0  182 12 0  184 12 0  186 12 0  188 12 0  190 12 0  192 12 0  194 12 0  196 12 0  198 12 0  200 12 0  0 14 0  2 14 0  4 14 0  6 14 0  8 14 0  10 14 0  12 14 0  14 14 0  16 14 0  18 14 0  20 14 0  22 14 0  24 14 0  26 14 0  28 14 0  30 14 0  32 14 0  34 14 0  36 14 0  38 14 0  40 14 0  42 14 0  44 14 0  46 14 0  48 14 0  50 14 0  52 14 0  54 14 0  56 14 0  58 14 0  60 14 0  62 14 0  64 14 0  66 14 0  68 14 0  70 14 0  72 14 0  74 14 0  76 14 0  78 14 0  80 14 0  82 14 0  84 14 0  86 14 0  88 14 0  90 14 0  92 14 0  94 14 0  96 14 0  98 14 0  100 14 0  102 14 0  104 14 0  106 14 0  108 14 0  110 14 0  112 14 0  114 14 0  116 14 0  118 14 0  120 14 0  122 14 0  124 14 0  126 14 0  128 14 0  130 14 0  132 14 0  134 14 0  136 14 0  138 14 0  140 14 0  142 14 0  144 14 0  146 14 0  148 14 0  150 14 0  152 14 0  154 14 0  156 14 0  158 14 0  160 14 0  162 14 0  164 14 0  166 14 0  168 14 0  170 14 0  172 14 0  174 14 0  176 14 0  178 14 0  180 14 0  182 14 0  184 14 0  186 14 0  188 14 0  190 14 0  192 14 0  194 14 0  196 14 0  198 14 0  200 14 0  0 16 0  2 16 0  4 16 0  6 16 0  8 16 0  10 16 0  12 16 0  14 16 0  16 16 0  18 16 0  20 16 0  22 16 0  24 16 0  26 16 0  28 16 0  30 16 0  32 16 0  34 16 0  36 16 0  38 16 0  40 16 0  42 16 0  44 16 0  46 16 0  48 16 0  50 16 0  52 16 0  54 16 0  56 16 0  58 16 0  60 16 0  62 16 0  64 16 0  66 16 0  68 16 0  70 16 0  72 16 0  74 16 0  76 16 0  78 16 0  80 16 0  82 16 0  84 16 0  86 16 0  88 16 0  90 16 0  92 16 0  94 16 0  96 16 0  98 16 0  100 16 0  102 16 0  104 16 0  106 16 0  108 16 0  110 16 0  112 16 0  114 16 0  116 16 0  118 16 0  120 16 0  122 16 0  124 16 0  126 16 0  128 16 0  130 16 0  132 16 0  134 16 0  136 16 0  138 16 0  140 16 0  142 16 0  144 16 0  146 16 0  148 16 0  150 16 0  152 16 0  154 16 0  156 16 0  158 16 0  160 16 0  162 16 0  164 16 0  166 16 0  168 16 0  170 16 0  172 16 0  174 16 0  176 16 0  178 16 0  180 16 0  182 16 0  184 16 0  186 16 0  188 16 0  190 16 0  192 16 0  194 16 0  196 16 0  198 16 0  200 16 0  0 18 0  2 18 0  4 18 0  6 18 0  8 18 0  10 18 0  12 18 0  14 18 0  16 18 0  18 18 0  20 18 0  22 18 0  24 18 0  26 18 0  28 18 0  30 18 0  32 18 0  34 18 0  36 18 0  38 18 0  40 18 0  42 18 0  44 18 0  46 18 0  48 18 0  50 18 0  52 18 0  54 18 0  56 18 0  58 18 0  60 18 0  62 18 0  64 18 0  66 18 0  68 18 0  70 18 0  72 18 0  74 18 0  76 18 0  78 18 0  80 18 0  82 18 0  84 18 0  86 18 0  88 18 0  90 18 0  92 18 0  94 18 0  96 18 0  98 18 0  100 18 0  102 18 0  104 18 0  106 18 0  108 18 0  110 18 0  112 18 0  114 18 0  116 18 0  118 18 0  120 18 0  122 18 0  124 18 0  126 18 0  128 18 0  130 18 0  132 18 0  134 18 0  136 18 0  138 18 0  140 18 0  142 18 0  144 18 0  146 18 0  148 18 0  150 18 0  152 18 0  154 18 0  156 18 0  158 18 0  160 18 0  162 18 0  164 18 0  166 18 0  168 18 0  170 18 0  172 18 0  174 18 0  176 18 0  178 18 0  180 18 0  182 18 0  184 18 0  186 18 0  188 18 0  190 18 0  192 18 0  194 18 0  196 18 0  198 18 0  200 18 0  0 20 0  2 20 0  4 20 0  6 20 0  8 20 0  10 20 0  12 20 0  14 20 0  16 20 0  18 20 0  20 20 0  22 20 0  24 20 0  26 20 0  28 20 0  30 20 0  32 20 0  34 20 0  36 20 0  38 20 0  40 20 0  42 20 0  44 20 0  46 20 0  48 20 0  50 20 0  52 20 0  54 20 0  56 20 0  58 20 0  60 20 0  62 20 0  64 20 0  66 20 0  68 20 0  70 20 0  72 20 0  74 20 0  76 20 0  78 20 0  80 20 0  82 20 0  84 20 0  86 20 0  88 20 0  90 20 0  92 20 0  94 20 0  96 20 0  98 20 0  100 20 0  102 20 0  104 20 0  106 20 0  108 20 0  110 20 0  112 20 0  114 20 0  116 20 0  118 20 0  120 20 0  122 20 0  124 20 0  126 20 0  128 20 0  130 20 0  132 20 0  134 20 0  136 20 0  138 20 0  140 20 0  142 20 0  144 20 0  146 20 0  148 20 0  150 20 0  152 20 0  154 20 0  156 20 0
[...]
<PointData  Scalars="f_271-0"> 
<DataArray  type="Float64"  Name="f_271-0"  format="ascii">5.2729566401119787e-01  5.2704974844790509e-01  5.2632121959288536e-01  5.2513687567980682e-01  5.2353871126536589e-01  5.2158050183497418e-01  5.1932404015829503e-01  5.1683571578673515e-01  5.1418396087047236e-01  5.1143778855943900e-01  5.0866630626417209e-01  5.0593878832498684e-01  5.0332472144917906e-01  5.0089323784431927e-01  4.9871152553498532e-01  4.9684210722479155e-01  4.9533922865464652e-01  4.9424490199552484e-01  4.9358532783675313e-01  4.9336842177247231e-01  4.9358299483323265e-01  4.9419982370814569e-01  4.9517447441624757e-01  4.9645140376805252e-01  4.9796863883523040e-01  4.9966227698201698e-01  5.0147016542560585e-01  5.0333437290663519e-01  5.0520238649328342e-01  5.0702726957726529e-01  5.0876722731516255e-01  5.1038509582780556e-01  5.1184819290916506e-01  5.1312877050462014e-01  5.1420504955219204e-01  5.1506256220784008e-01  5.1569533254081945e-01  5.1610632972443238e-01  5.1630663453662884e-01  5.1631285077386668e-01  5.1614242741145766e-01  5.1580668121771711e-01  5.1530136269583116e-01  5.1459452915563308e-01  5.1361121855242353e-01  5.1221390057364924e-01  5.1017685622948061e-01  5.0715141597802860e-01  5.0261722387090502e-01  4.9581222718148715e-01  4.8563191452053600e-01  4.7050938695649641e-01  4.4875533169419907e-01  4.2854810435937529e-01  5.0672884962028619e-01  7.0042734479207525e-01  7.4985668524125559e-01  7.5603088310171940e-01  7.5868279871747391e-01  7.6023062457167090e-01  7.5897199144779104e-01  7.3086320049823139e-01  6.0757633103535480e-01  6.9415149319934766e-01  7.4827838101244759e-01  7.5149125110719395e-01  7.5064015111269899e-01  7.4931732315490085e-01  7.4767371218835377e-01  7.4571424999805946e-01  7.4328034171161039e-01  7.3648397103935248e-01  6.7431839410735994e-01  4.7118536347628293e-01  4.1112042983929975e-01  4.3204392427814942e-01  4.5271942779244861e-01  4.6734606816276153e-01  4.7715877188950745e-01  4.8332403810766039e-01  4.8664745560219880e-01  4.8763030340826830e-01  4.8652570704755055e-01  4.8337817447992054e-01  4.7804748833704935e-01  4.7021637361904878e-01  4.5937847493611456e-01  4.4480760521391877e-01  4.2567013289781963e-01  4.0474381404030041e-01  4.3861001091335583e-01  6.3889185824705930e-01  7.2588730540949120e-01  7.3128885860698778e-01  7.2786232695631892e-01  7.2372680514929144e-01  7.1976724400926950e-01  7.1634113359542817e-01  7.1370602433438535e-01  7.1204853840826787e-01  7.1148315194567446e-01  5.2679732236046317e-01  5.2655709690077690e-01  5.2584543705826803e-01  5.2468854855817459e-01  5.2312747485037081e-01  5.2121473127584117e-01  5.1901060192774018e-01  5.1657978422727246e-01  5.1398889900950095e-01  5.1130508899180172e-01  5.0859558690001261e-01  5.0592783890943349e-01  5.0336959911573953e-01  5.0098841236990466e-01  4.9885007622426686e-01  4.9701597259862279e-01  4.9553950706109057e-01  4.9446219628280413e-01  4.9381012129212076e-01  4.9359146695071165e-01  4.9379569299187481e-01  4.9439457132085507e-01  4.9534495505855547e-01  4.9659280829591090e-01  4.9807780335410606e-01  4.9973773542350569e-01  5.0151212035383708e-01  5.0334459346471006e-01  5.0518404562974129e-01  5.0698473385501452e-01  5.0870581214496169e-01  5.1031079759478026e-01  5.1176740791902042e-01  5.1304800955419050e-01  5.1413065656186319e-01  5.1500044584248084e-01  5.1565072106522902e-01  5.1608356147248380e-01  5.1630899942729613e-01  5.1634250259302927e-01  5.1620039270807749e-01  5.1589299977249115e-01  5.1541540876106129e-01  5.1473558616039050e-01  5.1377942058184667e-01  5.1241172662819778e-01  5.1041149683763587e-01  5.0743858284734322e-01  5.0298745637437003e-01  4.9632169733789533e-01  4.8638152889758823e-01  4.7167683824066198e-01  4.5057935836504559e-01  4.2906739376448705e-01  4.8945788920535732e-01  6.8584243312442172e-01  7.4772306294692281e-01  7.5575134202008509e-01  7.5860861485950803e-01  7.6008111358356334e-01  7.5806701253364217e-01  7.2422570221908478e-01  5.9137128262440686e-01  6.8961614949654393e-01  7.4735672806764430e-01  7.5119553355087798e-01  7.5046621682164738e-01  7.4917165898365201e-01  7.4753108074492269e-01  7.4555340357822786e-01  7.4294194267828662e-01  7.3430230009005837e-01  6.6036058930388641e-01  4.5891328017598582e-01  4.1187333620321559e-01  4.3351592115239362e-01  4.5370523338944463e-01  4.6799457782441001e-01  4.7759672118477325e-01  4.8363341735486270e-01  4.8688256499018628e-01  4.8782988115055786e-01  4.8672102585371690e-01  4.8359900756383167e-01  4.7832736000502846e-01  4.7059845207986772e-01  4.5992400011160567e-01  4.4560941546478672e-01  4.2685552547287664e-01  4.0573192326771063e-01  4.2802436674459593e-01  6.1619661935608283e-01  7.2155285152067727e-01  7.3079462424815533e-01  7.2779707745331801e-01  7.2375323748430542e-01  7.1985484377001885e-01  7.1648198249519146e-01  7.1388957897344751e-01  7.1226000918542121e-01  7.1170436796531300e-01  5.2533930385082594e-01  5.2511580729303597e-01  5.2445374426471836e-01  5.2337758386569733e-01  5.2192558088579832e-01  5.2014655402941634e-01  5.1809635892646577e-01  5.1583472260864516e-01  5.1342294172214187e-01  5.1092265751581867e-01  5.0839558588577871e-01  5.0590379117433237e-01  5.0350992604128786e-01  5.0127686147772288e-01  4.9926630114747933e-01  4.9753626832377518e-01  4.9613769436856076e-01  4.9511063486297385e-01  4.9448081384888953e-01  4.9425720050032568e-01  4.9443115231976248e-01  4.9497735601202547e-01  4.9585643683650787e-01  4.9701877882338519e-01  4.9840888170748865e-01  4.9996952566859881e-01  5.0164512940797101e-01  5.0338393484059329e-01  5.0513896416068071e-01  5.0686799006551142e-01  5.0853296382016822e-01  5.1009941233849376e-01  5.1153623619390398e-01  5.1281614454250424e-01  5.1391670612478446e-01  5.1482174318720353e-01  5.1552260439610886e-01  5.1601875888666671e-01  5.1631716395069649e-01  5.1642995443972739e-01  5.1637014330666187e-01  5.1614515797493621e-01  5.1574810981942831e-01  5.1514664972200364e-01  5.1426905627175856e-01  5.1298680446709455e-01  5.1109225977215478e-01  5.0826934411996927e-01  5.0405407719626483e-01  4.9778102851999911e-01  4.8851233819700740e-01  4.7496349609487437e-01  4.5568989144324856e-01  4.3294185982243832e-01  4.5226212562909979e-01  6.2514718929887025e-01  7.3513418527729524e-01  7.5371614111401286e-01  7.5801728340639418e-01  7.5913463752431920e-01  7.5335835714493138e-01  6.9443094893322443e-01  5.3786189186981614e-01  6.6989966216448527e-01  7.4368372303838892e-01  7.5030169243571387e-01  7.5000385652588641e-01  7.4878575724292018e-01  7.4712908635365027e-01  7.4502567264892328e-01  7.4139482389360845e-01  7.2378116983643048e-01  6.0727093367090712e-01  4.3156600469142115e-01  4.1540559360464502e-01  4.3773381206683809e-01  4.5653159146732814e-01  4.6986669506258694e-01  4.7886948684224984e-01  4.8453824976016707e-01  4.8757413572081926e-01  4.8841938751370595e-01  4.8729872660591494e-01  4.8425099141648142e-01  4.7915029291344380e-01  4.7171587701695811e-01  4.6150899733377726e-01  4.4791990065641574e-01  4.3024210203071755e-01  4.0931390037661530e-01  4.0825436349768668e-01  5.4242948153261739e-01  7.0000636095920787e-01  7.2800159567349487e-01  7.2736972952634826e-01  7.2376624181448090e-01  7.2007940784270241e-01  7.1687248043368690e-01  7.1441226282940373e-01  7.1287020436893844e-01  7.1234537780861951e-01  5.2302968314661136e-01  5.2283295496498672e-01  5.2225025921625323e-01  5.2130330298208616e-01  5.2002590265925530e-01  5.1846098746871294e-01  5.1665734883826930e-01  5.1466677423548024e-01  5.1254204383580582e-01  5.1033598776573041e-01  5.0810147724209231e-01  5.0589194246979119e-01  5.0376184915068134e-01  5.0176656737236036e-01  4.9996123171484125e-01  4.9839847668929943e-01  4.9712526226523479e-01  4.9617929307782849e-01  4.9558570522204509e-01  4.9535470015667576e-01  4.9548064259149888e-01  4.9594284820435319e-01  4.9670794037433313e-01  4.9773333920062379e-01  4.9897123826188583e-01  5.0037237318102046e-01  5.0188899833611444e-01  5.0347672921962394e-01  5.0509521144193115e-01  5.0670786334257367e-01  5.0828113589836832e-01  5.0978379596541190e-01  5.1118665865564961e-01  5.1246300023815383e-01  5.1358962908891370e-01  5.1454834330761823e-01  5.1532731625288730e-01  5.1592186079018432e-01  5.1633403748652473e-01  5.1657067304780191e-01  5.1663950465503938e-01  5.1654331355760108e-01  5.1627200443023502e-01  5.1579257844352822e-01  5.1503680556781983e-01  5.1388611833796161e-01  5.1215285511044040e-01  5.0955656148303641e-01  5.0569380382726459e-01  5.0000031083739715e-01  4.9170671252747217e-01  4.7980299253862663e-01  4.6314154226249188e-01  4.4193216363295879e-01  4.3008672185714947e-01  5.0681855891657068e-01  6.7011857239082351e-01  7.3718673174959481e-01  7.5115056808995517e-01  7.5074964800456134e-01  7.2563546589057981e-01  6.0008438646652040e-01  4.5565887740160538e-01  6.1145986373499794e-01  7.3109403847429710e-01  7.4799231046677050e-01  7.4921941879073539e-01  7.4819235115321969e-01  7.4638523551741964e-01  7.4339227304861599e-01  7.3474451165500554e-01  6.8171319777955053e-01  5.0695266084868840e-01  4.1260372945309454e-01  4.2293287877814090e-01  4.4414315720711334e-01  4.6084410208600418e-01  4.7276185501327073e-01  4.8086356510551315e-01  4.8597351595085531e-01  4.8868342767648182e-01  4.8937260358508483e-01  4.8823523948467795e-01  4.8530422847294136e-01  4.8046933301509548e-01  4.7348865046459293e-01  4.6399285647867750e-01  4.5148623191094273e-01  4.3539673831405218e-01  4.1576851743273741e-01  3.9985214367042748e-01  4.4671234768727208e-01  6.2388956540286311e-01  7.1316576263427189e-01  7.2463833970535196e-01  7.2328646051019896e-01  7.2025306630242614e-01  7.1739850930466476e-01  7.1519521591489466e-01  7.1382210987598849e-01  7.1335693459668681e-01  5.2003901181204093e-01  5.1987750668850408e-01  5.1939925764086381e-01  5.1862236950326002e-01  5.1757486386699558e-01  5.1629196888880824e-01  5.1481322171011235e-01  5.1317998751946636e-01  5.1143384407345760e-01  5.0961601012638880e-01  5.0776768421889773e-01  5.0593089077508135e-01  5.0414927587019387e-01  5.0246829706794516e-01  5.0093441061621646e-01  4.9959313385544912e-01  4.9848617918111876e-01  4.9764813473547714e-01  4.9710333261526191e-01  4.9686355342640537e-01  4.9692706293377203e-01  4.9727920040782192e-01  4.9789440863841700e-01  4.9873929519874804e-01  4.9977611758725049e-01  5.0096603777296467e-01  5.0227160143412586e-01  5.0365813040384877e-01  5.0509400944002902e-01  5.0655012336668148e-01  5.0799888853726805e-01  5.0941337966057099e-01  5.1076697125819792e-01  5.1203371999657010e-01  5.1318946333870286e-01  5.1421336473975365e-01  5.1508945205611489e-01  5.1580760950657667e-01  5.1636350305705692e-01  5.1675702709114590e-01  5.1698901944902742e-01  5.1705615424680029e-01  5.1694403807953926e-01  5.1661856509843596e-01  5.1601551021376124e-01  5.1502817095537501e-01  5.1349267088775419e-01  5.1117044994005290e-01  5.0772775671079484e-01  5.0271315046368614e-01  4.9553733506493169e-01  4.8546957911385052e-01  4.7171130452131999e-01  4.5388795803851584e-01  4.3491925509984108e-01  4.3402172867396838e-01  5.0748426832935112e-01  6.2481727345098181e-01  6.7911672315780958e-01  6.7174387245710976e-01  5.9004600614930036e-01  4.5138538567860159e-01  3.9847179189392179e-01  4.9490268344356925e-01  6.7447385560312301e-01  7.3585522846460771e-01  7.4529389046340133e-01  7.4559714597216686e-01  7.4261693027378339e-01  7.3331923238324714e-01  6.9318722866705507e-01  5.5914939606873526e-01  4.2720829776139596e-01  4.1431971042180010e-01  4.3341921598387312e-01  4.5195691547639988e-01  4.6616338426179627e-01  4.7640255688194666e-01  4.8341836265327820e-01  4.8784539717557435e-01  4.9015345629981244e-01  4.9065022017600207e-01  4.8949486689717436e-01  4.8671379179001473e-01  4.8221530565283161e-01  4.7580196021000831e-01  4.6718059464415185e-01  4.5597386899757980e-01  4.4175775996168337e-01  4.2429895420185831e-01  4.0533896346551324e-01  3.9959396978788181e-01  4.7563782184452363e-01  6.3217888398991828e-01  7.0410344004027947e-01  7.1808576956563830e-01  7.1892562191298315e-01  7.1745471203623301e-01  7.1594446741131146e-01  7.1494719491189984e-01  7.1460447073682187e-01  5.1658678868770203e-01  5.1646690451087918e-01  5.1611209127239110e-01  5.1553624566127543e-01  5.1476061003800044e-01  5.1381138493435319e-01  5.1271723233748145e-01  5.1150723675609244e-01  5.1020974082805159e-01  5.0885221241551226e-01  5.0746200094583260e-01  5.0606758256358253e-01  5.0469974565050091e-01  5.0339217030937322e-01  5.0218100772987750e-01  5.0110332865616514e-01  5.0019461597250792e-01  4.9948574495087855e-01  4.9900005572274436e-01  4.9875113362914059e-01  4.9874177068691805e-01  4.9896432157048459e-01  4.9940235642510977e-01  5.0003322932953742e-01  5.0083099612874848e-01  5.0176907307976504e-01  5.0282213509141005e-01  5.0396697735700557e-01  5.0518234540301765e-01  5.0644800188018113e-01  5.0774347688004184e-01  5.0904699974135870e-01  5.1033502630426375e-01  5.1158258317098826e-01  5.1276440203876628e-01  5.1385657498627335e-01  5.1483828149840527e-01  5.1569305590288828e-01  5.1640908911635919e-01  5.1697817449785355e-01  5.1739307771035126e-01  5.1764328792461400e-01  5.1770924592383316e-01  5.1755520884449868e-01  5.1712089057391508e-01  5.1631193811341847e-01  5.1498924823450076e-01  5.1295725159211258e-01  5.0995186010155225e-01  5.0563023320660805e-01  4.9956764844949886e-01  4.9127335158730112e-01  4.8025401995531697e-01  4.6621246009444051e-01  4.4968356209701360e-01  4.3400062473462903e-01  4.2923267856321945e-01  4.4960384069349635e-01  4.7486416713579532e-01  4.6687791560608471e-01  4.2874720068316713e-01  3.9912512576237519e-01  3.9013978387967685e-01  4.0969523578188388e-01  5.1607476131783903e-01  6.4846447381508587e-01  7.0233775006231924e-01  7.1270844282709367e-01  7.0043498487374889e-01  6.5223562455677664e-01  5.3952452896220959e-01  4.3323694796024564e-01  4.1234415244528960e-01  4.2705524562330821e-01  4.4515374175535682e-01  4.6035322284179286e-01  4.7199941472098966e-01  4.8049437454215688e-01  4.8635767008195502e-01  4.9004778671033872e-01  4.9191775323228487e-01  4.9220493457323694e-01  4.9103391990709755e-01  4.8842529721476519e-01  4.8430686369879994e-01  4.7852572830904344e-01  4.7086142480551813e-01  4.6104277493362100e-01  4.4877867224979517e-01  4.3385014806535921e-01  4.1651039840068721e-01  3.9959443185337101e-01  3.9734838257176969e-01  4.5770370985020797e-01  5.8283774815125611e-01  6.6684714398055644e-01  6.9906622719755729e-01  7.0934121057109512e-01  7.1239828114137349e-01  7.1322242817336579e-01  7.1337797980039896e-01  5.1292410856432757e-01  5.1284985887170853e-01  5.1263040708269658e-01  5.1227509842592545e-01  5.1179782966896603e-01  5.1121499462328035e-01  5.1054340534633380e-01  5.0979872054855513e-01  5.0899476670048160e-01  5.0814388690983481e-01  5.0725816495402531e-01  5.0635112381603753e-01  5.0543935590244582e-01  5.0454354398499290e-01  5.0368847805633754e-01  5.0290192617947560e-01  5.0221251161519209e-01  5.0164700783777694e-01  5.0122762036721613e-01  5.0096983902071335e-01  5.0088131256956503e-01  5.0096195404477484e-01  5.0120519198997748e-01  5.0160001593928982e-01  5.0213329094519343e-01  5.0279177866052549e-01  5.0356340792079946e-01  5.0443755544202806e-01  5.0540436808731926e-01  5.0645341069371586e-01  5.0757209291188343e-01  5.0874437362200342e-01  5.0995015441074942e-01  5.1116558042888660e-01  5.1236421909068508e-01  5.1351884635758471e-01  5.1460339259752053e-01  5.1559452169963471e-01  5.1647234831569322e-01  5.1721992259684624e-01  5.1782129326864523e-01  5.1825815173310807e-01  5.1850521675758421e-01  5.1852460922155963e-01  5.1825948305973391e-01  5.1762715375236668e-01  5.1651198133121301e-01  5.1475846415282489e-01  5.1216559782247972e-01  5.0848484406005079e-01  5.0342639844943626e-01  4.9668224471014388e-01  4.8798031171092088e-01  4.7719326936561351e-01  4.6454043928714950e-01  4.5091551837259786e-01  4.3818965708818103e-01  4.2852196381969931e-01  4.2250064759113792e-01  4.1755150732828072e-01  4.1269093571736154e-01  4.0823714778379688e-01  4.0341313026620379e-01  4.0031072414210689e-01  4.1116948097187755e-01  4.5626987052888512e-01  5.1277852388668144e-01  5.3567530749751602e-01  5.1258837466907614e-01  4.6021152536483922e-01  4.1951354692616660e-01  4.1359344386928637e-01  4.2613107485823226e-01  4.4212768749992515e-01  4.5671923664214226e-01  4.6867336820688510e-01  4.7793828893405088e-01  4.8477527045263180e-01  4.8951727265847528e-01  4.9247742152742352e-01  4.9390857672153782e-01  4.9398623714594880e-01  4.9280456045669924e-01  4.9038000374281770e-01  4.8665940122734747e-01  4.8153089172309899e-01  4.7483754129630046e-01  4.6639518464858742e-01  4.5601867294631820e-01  4.4356747713966999e-01  4.2905298167077055e-01  4.1297211013465890e-01  3.9759173794693548e-01  3.9049698812465949e-01  4.1280246513466479e-01  4.7845786352632602e-01  5.6196233134541940e-01  6.2116110295770910e-01  6.5124442809819216e-01  6.6450613165234429e-01  6.6827932842687565e-01  5.0931392307027590e-01  5.0928677244657850e-01  5.0920705242439679e-01  5.0907948229680866e-01  5.0891047661210087e-01  5.0870640939281775e-01  5.0847194092592851e-01  5.0820890826235121e-01  5.0791613737892283e-01  5.0759029150844770e-01  5.0722759117206628e-01  5.0682600110910581e-01  5.0638734146040332e-01  5.0591878204371055e-01  5.0543331965581983e-01  5.0494908293845198e-01  5.0448759452952840e-01  5.0407137270551683e-01  5.0372140990355896e-01  5.0345508417742202e-01  5.0328493801690799e-01  5.0321852954854673e-01  5.0325928410512832e-01  5.0340802153724351e-01  5.0366467148126648e-01  5.0402965617996176e-01  5.0450452492708020e-01  5.0509163640989341e-01  5.0579294802310892e-01  5.0660821518948895e-01  5.0753306562862677e-01  5.0855745285004206e-01  5.0966490205213733e-01  5.1083276572832326e-01  5.1203345659703925e-01  5.1323638384942549e-01  5.1441014156188858e-01  5.1552442280602195e-01  5.1655117025767661e-01  5.1746460782058801e-01  5.1823999096588913e-01  5.1885111861541200e-01  5.1926682060343343e-01  5.1944674038757299e-01  5.1933676708626297e-01  5.1886446442173428e-01  5.1793486964526425e-01  5.1642720910960815e-01  5.1419354816173835e-01  5.1106131326426585e-01  5.0684307282797680e-01  5.0135878333369377e-01  4.9447719671447538e-01  4.8618256220046213e-01  4.7666627220294716e-01  4.6642193145338412e-01  4.5626784617002181e-01  4.4718649377494513e-01  4.3991199061077368e-01  4.3454535553984391e-01  4.3039907244437625e-01  4.2638676263971853e-01  4.2163390804570500e-01  4.1604420572218637e-01  4.1088062974077466e-01  4.0871545837150608e-01  4.1134686242514951e-01  4.1407095793151577e-01  4.1289335022130974e-01  4.1292067299926183e-01  4.1933064630557892e-01  4.3059243702835498e-01  4.4361637652968994e-01  4.5623194175114390e-01  4.6732087482559165e-01  4.7648560186492794e-01  4.8368335496959430e-01  4.8904330845634914e-01  4.9276236314330091e-01  4.9504406042379867e-01  4.9606256573135660e-01  4.9594366396225131e-01  4.9475735452870062e-01  4.9251819896577165e-01  4.8919082733687047e-01  4.8469911524683029e-01  4.7893858017161867e-01  4.7179256512343987e-01  4.6315373684978217e-01  4.5295344690079720e-01  4.4120385259280115e-01  4.2807103269734909e-01  4.1402413741570498e-01  4.0024297456045038e-01  3.8919752837783533e-01  3.8636804053168022e-01  3.9802416322543993e-01  4.2135997126334818e-01  4.4593715926691602e-01  4.6343568444790101e-01  4.6969469099814903e-01  5.0601054731695971e-01  5.0602941468837903e-01  5.0608624620326770e-01  5.0618131527923560e-01  5.0631382666576996e-01  5.0648046445518924e-01  5.0667408699811778e-01  5.0688304728756006e-01  5.0709147516974051e-01  5.0728061797460466e-01  5.0743106204826305e-01  5.0752542164137848e-01  5.0755094605603035e-01  5.0750149687447710e-01  5.0737848483750447e-01  5.0719059537056987e-01  5.0695241161385407e-01  5.0668229274884447e-01  5.0640002049059363e-01  5.0612474950298025e-01  5.0587368423740797e-01  5.05661686551