<?xml version="1.0"?>
<VTKFile type="UnstructuredGrid"  version="0.1"  >
<UnstructuredGrid>
<Piece  NumberOfPoints="20201" NumberOfCells="40000">
<Points>
<DataArray  type="Float64"  NumberOfComponents="3"  format="ascii">0 0 0  2 0 0  4 0 0  6 0 0  8 0 0  10 0 0  12 0 0  14 0 0  16 0 0  18 0 0  20 0 0  22 0 0  24 0 0  26 0 0  28 0 0  30 0 0  32 0 0  34 0 0  36 0 0  38 0 0  40 0 0  42 0 0  44 0 0  46 0 0  48 0 0  50 0 0  52 0 0  54 0 0  56 0 0  58 0 0  60 0 0  62 0 0  64 0 0  66 0 0  68 0 0  70 0 0  72 0 0  74 0 0  76 0 0  78 0 0  80 0 0  82 0 0  84 0 0  86 0 0  88 0 0  90 0 0  92 0 0  94 0 0  96 0 0  98 0 0  100 0 0  102 0 0  104 0 0  106 0 0  108 0 0  110 0 0  112 0 0  114 0 0  116 0 0  118 0 0  120 0 0  122 0 0  124 0 0  126 0 0  128 0 0  130 0 0  132 0 0  134 0 0  136 0 0  138 0 0  140 0 0  142 0 0  144 0 0  146 0 0  148 0 0  150 0 0  152 0 0  154 0 0  156 0 0  158 0 0  160 0 0  162 0 0  164 0 0  166 0 0  168 0 0  170 0 0  172 0 0  174 0 0  176 0 0  178 0 0  180 0 0  182 0 0  184 0 0  186 0 0  188 0 0  190 0 0  192 0 0  194 0 0  196 0 0  198 0 0  200 0 0  0 2 0  2 2 0  4 2 0  6 2 0  8 2 0  10 2 0  12 2 0  14 2 0  16 2 0  18 2 0  20 2 0  22 2 0  24 2 0  26 2 0  28 2 0  30 2 0  32 2 0  34 2 0  36 2 0  38 2 0  40 2 0  42 2 0  44 2 0  46 2 0  48 2 0  50 2 0  52 2 0  54 2 0  56 2 0  58 2 0  60 2 0  62 2 0  64 2 0  66 2 0  68 2 0  70 2 0  72 2 0  74 2 0  76 2 0  78 2 0  80 2 0  82 2 0  84 2 0  86 2 0  88 2 0  90 2 0  92 2 0  94 2 0  96 2 0  98 2 0  100 2 0  102 2 0  104 2 0  106 2 0  108 2 0  110 2 0  112 2 0  114 2 0  116 2 0  118 2 0  120 2 0  122 2 0  124 2 0  126 2 0  128 2 0  130 2 0  132 2 0  134 2 0  136 2 0  138 2 0  140 2 0  142 2 0  144 2 0  146 2 0  148 2 0  150 2 0  152 2 0  154 2 0  156 2 0  158 2 0  160 2 0  162 2 0  164 2 0  166 2 0  168 2 0  170 2 0  172 2 0  174 2 0  176 2 0  178 2 0  180 2 0  182 2 0  184 2 0  186 2 0  188 2 0  190 2 0  192 2 0  194 2 0  196 2 0  198 2 0  200 2 0  0 4 0  2 4 0  4 4 0  6 4 0  8 4 0  10 4 0  12 4 0  14 4 0  16 4 0  18 4 0  20 4 0  22 4 0  24 4 0  26 4 0  28 4 0  30 4 0  32 4 0  34 4 0  36 4 0  38 4 0  40 4 0  42 4 0  44 4 0  46 4 0  48 4 0  50 4 0  52 4 0  54 4 0  56 4 0  58 4 0  60 4 0  62 4 0  64 4 0  66 4 0  68 4 0  70 4 0  72 4 0  74 4 0  76 4 0  78 4 0  80 4 0  82 4 0  84 4 0  86 4 0  88 4 0  90 4 0  92 4 0  94 4 0  96 4 0  98 4 0  100 4 0  102 4 0  104 4 0  106 4 0  108 4 0  110 4 0  112 4 0  114 4 0  116 4 0  118 4 0  120 4 0  122 4 0  124 4 0  126 4 0  128 4 0  130 4 0  132 4 0  134 4 0  136 4 0  138 4 0  140 4 0  142 4 0  144 4 0  146 4 0  148 4 0  150 4 0  152 4 0  154 4 0  156 4 0  158 4 0  160 4 0  162 4 0  164 4 0  166 4 0  168 4 0  170 4 0  172 4 0  174 4 0  176 4 0  178 4 0  180 4 0  182 4 0  184 4 0  186 4 0  188 4 0  190 4 0  192 4 0  194 4 0  196 4 0  198 4 0  200 4 0  0 6 0  2 6 0  4 6 0  6 6 0  8 6 0  10 6 0  12 6 0  14 6 0  16 6 0  18 6 0  20 6 0  22 6 0  24 6 0  26 6 0  28 6 0  30 6 0  32 6 0  34 6 0  36 6 0  38 6 0  40 6 0  42 6 0  44 6 0  46 6 0  48 6 0  50 6 0  52 6 0  54 6 0  56 6 0  58 6 0  60 6 0  62 6 0  64 6 0  66 6 0  68 6 0  70 6 0  72 6 0  74 6 0  76 6 0  78 6 0  80 6 0  82 6 0  84 6 0  86 6 0  88 6 0  90 6 0  92 6 0  94 6 0  96 6 0  98 6 0  100 6 0  102 6 0  104 6 0  106 6 0  108 6 0  110 6 0  112 6 0  114 6 0  116 6 0  118 6 0  120 6 0  122 6 0  124 6 0  126 6 0  128 6 0  130 6 0  132 6 0  134 6 0  136 6 0  138 6 0  140 6 0  142 6 0  144 6 0  146 6 0  148 6 0  150 6 0  152 6 0  154 6 0  156 6 0  158 6 0  160 6 0  162 6 0  164 6 0  166 6 0  168 6 0  170 6 0  172 6 0  174 6 0  176 6 0  178 6 0  180 6 0  182 6 0  184 6 0  186 6 0  188 6 0  190 6 0  192 6 0  194 6 0  196 6 0  198 6 0  200 6 0  0 8 0  2 8 0  4 8 0  6 8 0  8 8 0  10 8 0  12 8 0  14 8 0  16 8 0  18 8 0  20 8 0  22 8 0  24 8 0  26 8 0  28 8 0  30 8 0  32 8 0  34 8 0  36 8 0  38 8 0  40 8 0  42 8 0  44 8 0  46 8 0  48 8 0  50 8 0  52 8 0  54 8 0  56 8 0  58 8 0  60 8 0  62 8 0  64 8 0  66 8 0  68 8 0  70 8 0  72 8 0  74 8 0  76 8 0  78 8 0  80 8 0  82 8 0  84 8 0  86 8 0  88 8 0  90 8 0  92 8 0  94 8 0  96 8 0  98 8 0  100 8 0  102 8 0  104 8 0  106 8 0  108 8 0  110 8 0  112 8 0  114 8 0  116 8 0  118 8 0  120 8 0  122 8 0  124 8 0  126 8 0  128 8 0  130 8 0  132 8 0  134 8 0  136 8 0  138 8 0  140 8 0  142 8 0  144 8 0  146 8 0  148 8 0  150 8 0  152 8 0  154 8 0  156 8 0  158 8 0  160 8 0  162 8 0  164 8 0  166 8 0  168 8 0  170 8 0  172 8 0  174 8 0  176 8 0  178 8 0  180 8 0  182 8 0  184 8 0  186 8 0  188 8 0  190 8 0  192 8 0  194 8 0  196 8 0  198 8 0  200 8 0  0 10 0  2 10 0  4 10 0  6 10 0  8 10 0  10 10 0  12 10 0  14 10 0  16 10 0  18 10 0  20 10 0  22 10 0  24 10 0  26 10 0  28 10 0  30 10 0  32 10 0  34 10 0  36 10 0  38 10 0  40 10 0  42 10 0  44 10 0  46 10 0  48 10 0  50 10 0  52 10 0  54 10 0  56 10 0  58 10 0  60 10 0  62 10 0  64 10 0  66 10 0  68 10 0  70 10 0  72 10 0  74 10 0  76 10 0  78 10 0  80 10 0  82 10 0  84 10 0  86 10 0  88 10 0  90 10 0  92 10 0  94 10 0  96 10 0  98 10 0  100 10 0  102 10 0  104 10 0  106 10 0  108 10 0  110 10 0  112 10 0  114 10 0  116 10 0  118 10 0  120 10 0  122 10 0  124 10 0  126 10 0  128 10 0  130 10 0  132 10 0  134 10 0  136 10 0  138 10 0  140 10 0  142 10 0  144 10 0  146 10 0  148 10 0  150 10 0  152 10 0  154 10 0  156 10 0  158 10 0  160 10 0  162 10 0  164 10 0  166 10 0  168 10 0  170 10 0  172 10 0  174 10 0  176 10 0  178 10 0  180 10 0  182 10 0  184 10 0  186 10 0  188 10 0  190 10 0  192 10 0  194 10 0  196 10 0  198 10 0  200 10 0  0 12 0  2 12 0  4 12 0  6 12 0  8 12 0  10 12 0  12 12 0  14 12 0  16 12 0  18 12 0  20 12 0  22 12 0  24 12 0  26 12 0  28 12 0  30 12 0  32 12 0  34 12 0  36 12 0  38 12 0  40 12 0  42 12 0  44 12 0  46 12 0  48 12 0  50 12 0  52 12 0  54 12 0  56 12 0  58 12 0  60 12 0  62 12 0  64 12 0  66 12 0  68 12 0  70 12 0  72 12 0  74 12 0  76 12 0  78 12 0  80 12 0  82 12 0  84 12 0  86 12 0  88 12 0  90 12 0  92 12 0  94 12 0  96 12 0  98 12 0  100 12 0  102 12 0  104 12 0  106 12 0  108 12 0  110 12 0  112 12 0  114 12 0  116 12 0  118 12 0  120 12 0  122 12 0  124 12 0  126 12 0  128 12 0  130 12 0  132 12 0  134 12 0  136 12 0  138 12 0  140 12 0  142 12 0  144 12 0  146 12 0  148 12 0  150 12 0  152 12 0  154 12 0  156 12 0  158 12 0  160 12 0  162 12 0  164 12 0  166 12 0  168 12 0  170 12 0  172 12 0  174 12 0  176 12 0  178 12 0  180 12 0  182 12 0  184 12 0  186 12 0  188 12 0  190 12 0  192 12 0  194 12 0  196 12 0  198 12 0  200 12 0  0 14 0  2 14 0  4 14 0  6 14 0  8 14 0  10 14 0  12 14 0  14 14 0  16 14 0  18 14 0  20 14 0  22 14 0  24 14 0  26 14 0  28 14 0  30 14 0  32 14 0  34 14 0  36 14 0  38 14 0  40 14 0  42 14 0  44 14 0  46 14 0  48 14 0  50 14 0  52 14 0  54 14 0  56 14 0  58 14 0  60 14 0  62 14 0  64 14 0  66 14 0  68 14 0  70 14 0  72 14 0  74 14 0  76 14 0  78 14 0  80 14 0  82 14 0  84 14 0  86 14 0  88 14 0  90 14 0  92 14 0  94 14 0  96 14 0  98 14 0  100 14 0  102 14 0  104 14 0  106 14 0  108 14 0  110 14 0  112 14 0  114 14 0  116 14 0  118 14 0  120 14 0  122 14 0  124 14 0  126 14 0  128 14 0  130 14 0  132 14 0  134 14 0  136 14 0  138 14 0  140 14 0  142 14 0  144 14 0  146 14 0  148 14 0  150 14 0  152 14 0  154 14 0  156 14 0  158 14 0  160 14 0  162 14 0  164 14 0  166 14 0  168 14 0  170 14 0  172 14 0  174 14 0  176 14 0  178 14 0  180 14 0  182 14 0  184 14 0  186 14 0  188 14 0  190 14 0  192 14 0  194 14 0  196 14 0  198 14 0  200 14 0  0 16 0  2 16 0  4 16 0  6 16 0  8 16 0  10 16 0  12 16 0  14 16 0  16 16 0  18 16 0  20 16 0  22 16 0  24 16 0  26 16 0  28 16 0  30 16 0  32 16 0  34 16 0  36 16 0  38 16 0  40 16 0  42 16 0  44 16 0  46 16 0  48 16 0  50 16 0  52 16 0  54 16 0  56 16 0  58 16 0  60 16 0  62 16 0  64 16 0  66 16 0  68 16 0  70 16 0  72 16 0  74 16 0  76 16 0  78 16 0  80 16 0  82 16 0  84 16 0  86 16 0  88 16 0  90 16 0  92 16 0  94 16 0  96 16 0  98 16 0  100 16 0  102 16 0  104 16 0  106 16 0  108 16 0  110 16 0  112 16 0  114 16 0  116 16 0  118 16 0  120 16 0  122 16 0  124 16 0  126 16 0  128 16 0  130 16 0  132 16 0  134 16 0  136 16 0  138 16 0  140 16 0  142 16 0  144 16 0  146 16 0  148 16 0  150 16 0  152 16 0  154 16 0  156 16 0  158 16 0  160 16 0  162 16 0  164 16 0  166 16 0  168 16 0  170 16 0  172 16 0  174 16 0  176 16 0  178 16 0  180 16 0  182 16 0  184 16 0  186 16 0  188 16 0  190 16 0  192 16 0  194 16 0  196 16 0  198 16 0  200 16 0  0 18 0  2 18 0  4 18 0  6 18 0  8 18 0  10 18 0  12 18 0  14 18 0  16 18 0  18 18 0  20 18 0  22 18 0  24 18 0  26 18 0  28 18 0  30 18 0  32 18 0  34 18 0  36 18 0  38 18 0  40 18 0  42 18 0  44 18 0  46 18 0  48 18 0  50 18 0  52 18 0  54 18 0  56 18 0  58 18 0  60 18 0  62 18 0  64 18 0  66 18 0  68 18 0  70 18 0  72 18 0  74 18 0  76 18 0  78 18 0  80 18 0  82 18 0  84 18 0  86 18 0  88 18 0  90 18 0  92 18 0  94 18 0  96 18 0  98 18 0  100 18 0  102 18 0  104 18 0  106 18 0  108 18 0  110 18 0  112 18 0  114 18 0  116 18 0  118 18 0  120 18 0  122 18 0  124 18 0  126 18 0  128 18 0  130 18 0  132 18 0  134 18 0  136 18 0  138 18 0  140 18 0  142 18 0  144 18 0  146 18 0  148 18 0  150 18 0  152 18 0  154 18 0  156 18 0  158 18 0  160 18 0  162 18 0  164 18 0  166 18 0  168 18 0  170 18 0  172 18 0  174 18 0  176 18 0  178 18 0  180 18 0  182 18 0  184 18 0  186 18 0  188 18 0  190 18 0  192 18 0  194 18 0  196 18 0  198 18 0  200 18 0  0 20 0  2 20 0  4 20 0  6 20 0  8 20 0  10 20 0  12 20 0  14 20 0  16 20 0  18 20 0  20 20 0  22 20 0  24 20 0  26 20 0  28 20 0  30 20 0  32 20 0  34 20 0  36 20 0  38 20 0  40 20 0  42 20 0  44 20 0  46 20 0  48 20 0  50 20 0  52 20 0  54 20 0  56 20 0  58 20 0  60 20 0  62 20 0  64 20 0  66 20 0  68 20 0  70 20 0  72 20 0  74 20 0  76 20 0  78 20 0  80 20 0  82 20 0  84 20 0  86 20 0  88 20 0  90 20 0  92 20 0  94 20 0  96 20 0  98 20 0  100 20 0  102 20 0  104 20 0  106 20 0  108 20 0  110 20 0  112 20 0  114 20 0  116 20 0  118 20 0  120 20 0  122 20 0  124 20 0  126 20 0  128 20 0  130 20 0  132 20 0  134 20 0  136 20 0  138 20 0  140 20 0  142 20 0  144 20 0  146 20 0  148 20 0  150 20 0  152 20 0  154 20 0  156 20 0
[...]
<PointData  Scalars="f_271-0"> 
<DataArray  type="Float64"  Name="f_271-0"  format="ascii">5.9028988546143657e-01  5.8851136920723834e-01  5.8345031570228878e-01  5.7584466093288500e-01  5.6667928600587392e-01  5.5693158340504911e-01  5.4736703382466256e-01  5.3842726743282987e-01  5.3020927569926712e-01  5.2251800277020866e-01  5.1497807409311058e-01  5.0719075049584250e-01  4.9890783838562547e-01  4.9017561962720163e-01  4.8139842323272158e-01  4.7329244618083915e-01  4.6673734311162041e-01  4.6256802959392151e-01  4.6136751373565615e-01  4.6331866050719034e-01  4.6815273541594671e-01  4.7520412925976807e-01  4.8355300609081819e-01  4.9221744945351326e-01  5.0034728503106551e-01  5.0737363852463857e-01  5.1308022423268196e-01  5.1758180879912064e-01  5.2121834041660475e-01  5.2439492709935631e-01  5.2741325246150150e-01  5.3034530553169912e-01  5.3299292662105591e-01  5.3495469045921107e-01  5.3578435776917277e-01  5.3517833511720758e-01  5.3309483409153302e-01  5.2972306208071906e-01  5.2531399101567899e-01  5.2001487848464489e-01  5.1389062288091059e-01  5.0716121172500395e-01  5.0043594465077545e-01  4.9466445948708387e-01  4.9077212134989151e-01  4.8924414561905893e-01  4.8995202238897151e-01  4.9229650665130625e-01  4.9552723644807861e-01  4.9904577243001685e-01  5.0256893718020412e-01  5.0611921735274590e-01  5.0986042034627688e-01  5.1380505929655507e-01  5.1739740102509790e-01  5.1893673294637221e-01  5.1493627179302737e-01  5.0362862500401229e-01  5.4340780640295383e-01  7.3365492080545036e-01  8.1216508944252896e-01  7.9893886201546216e-01  6.6319638667895597e-01  5.5164325316015772e-01  7.2530159843742881e-01  7.7688372809065587e-01  7.8060734974247925e-01  7.7929429632329283e-01  7.6477848934991499e-01  6.5249352272473682e-01  4.8573005144789438e-01  4.7931326565954807e-01  4.9866487524622177e-01  5.0763552621340491e-01  5.0899813056263021e-01  5.0633338847292031e-01  5.0219005607808764e-01  4.9833390789673987e-01  4.9591034515137333e-01  4.9550367800117112e-01  4.9717282106886812e-01  5.0052024857643418e-01  5.0481411425116474e-01  5.0914720034184879e-01  5.1258900985997813e-01  5.1427570654825394e-01  5.1339397168751766e-01  5.0905395250231023e-01  5.0010753851340506e-01  4.8503515612593051e-01  4.6227544788660890e-01  4.3664971339669278e-01  4.8432610470740989e-01  6.6755802182952828e-01  7.0583671020438188e-01  6.8135973763918845e-01  6.5287443494744923e-01  6.2835480430237955e-01  6.0987405119413807e-01  5.9845916016561840e-01  5.9460570544200164e-01  5.8758525321202848e-01  5.8586605914339673e-01  5.8097277190132501e-01  5.7361638375412038e-01  5.6474696374833522e-01  5.5530871056853603e-01  5.4604189605592079e-01  5.3737329643736087e-01  5.2939504137748261e-01  5.2191550019264954e-01  5.1456831372236955e-01  5.0696543043455811e-01  4.9886622349121473e-01  4.9031714825308315e-01  4.8171333386637433e-01  4.7375373055140418e-01  4.6729697128831182e-01  4.6315890131417431e-01  4.6191072431650348e-01  4.6373416265199446e-01  4.6837073663209072e-01  4.7517463410746807e-01  4.8325159370120940e-01  4.9164638161363977e-01  4.9953210929726860e-01  5.0635639113573450e-01  5.1191100214199736e-01  5.1631075081390543e-01  5.1988986315445007e-01  5.2304541337499799e-01  5.2607239586124854e-01  5.2904016573679835e-01  5.3175270779065287e-01  5.3381368440542543e-01  5.3478088869150753e-01  5.3434935304197650e-01  5.3246883029958580e-01  5.2931654340174383e-01  5.2513582969892503e-01  5.2007672073324851e-01  5.1421383181874358e-01  5.0777019263069390e-01  5.0133849118992901e-01  4.9583288331855319e-01  4.9213988215648613e-01  4.9072030971769648e-01  4.9144343738685614e-01  4.9372541312315071e-01  4.9683826277747040e-01  5.0020345396015464e-01  5.0355068074825837e-01  5.0690924313758667e-01  5.1044995181306796e-01  5.1420542677816861e-01  5.1767927319626428e-01  5.1932808012890830e-01  5.1604211512139597e-01  5.0567300072778276e-01  5.2379943548295782e-01  6.7522028740040718e-01  7.7884263532756526e-01  7.6041387693358675e-01  6.0323192270275527e-01  5.1919275287008559e-01  6.9893458896158422e-01  7.7141626772622895e-01  7.7854904114317314e-01  7.7576502777501943e-01  7.4910147052850196e-01  6.0971980236868828e-01  4.7719923103245343e-01  4.8146871321850199e-01  4.9962019943088559e-01  5.0788793759957618e-01  5.0902640731252535e-01  5.0635315203305042e-01  5.0227675745370859e-01  4.9848745082398405e-01  4.9608973136980983e-01  4.9564897910893058e-01  4.9722135395341233e-01  5.0041895021168636e-01  5.0452820115852470e-01  5.0866504804652080e-01  5.1192408977833337e-01  5.1346776676911787e-01  5.1251272527298863e-01  5.0820851295285496e-01  4.9946323367379525e-01  4.8483573598919250e-01  4.6283386798144832e-01  4.3670185992190214e-01  4.6439852939741139e-01  6.3960277297859947e-01  7.0299092661918183e-01  6.8449171186858015e-01  6.5762223119128205e-01  6.3383555637215006e-01  6.1578836688860938e-01  6.0461027984655979e-01  6.0083252688872169e-01  5.7972006116242381e-01  5.7816937665652379e-01  5.7375337522235081e-01  5.6710829128576656e-01  5.5908719929793582e-01  5.5054121864719507e-01  5.4213928409767131e-01  5.3426549187354211e-01  5.2699719297869374e-01  5.2015118228204182e-01  5.1338513452552947e-01  5.0633964922840990e-01  4.9879400774419913e-01  4.9079394496032192e-01  4.8270770656641870e-01  4.7518485741599797e-01  4.6902407396211498e-01  4.6498677948871586e-01  4.6361035478133239e-01  4.6507303588322030e-01  4.6914543068841191e-01  4.7523823987351838e-01  4.8253047934571031e-01  4.9014362105441256e-01  4.9731796468022615e-01  5.0354896745938882e-01  5.0865213930384900e-01  5.1274302517843440e-01  5.1614002373397005e-01  5.1921771117893445e-01  5.2225239910310028e-01  5.2530634736634452e-01  5.2819010755539053e-01  5.3052233096978296e-01  5.3187281340225501e-01  5.3193318195145789e-01  5.3062950339245296e-01  5.2810493423769134e-01  5.2458046767569699e-01  5.2021265717326159e-01  5.1510210770017906e-01  5.0947944348299312e-01  5.0389014575687008e-01  4.9914816709016940e-01  4.9602999839766093e-01  4.9492682978795904e-01  4.9570081903475299e-01  4.9781098430195092e-01  5.0059227764654823e-01  5.0352222033445382e-01  5.0636663484139421e-01  5.0917356942473080e-01  5.1213218806087968e-01  5.1532714817252301e-01  5.1841321179135946e-01  5.2023331245130966e-01  5.1853010760040730e-01  5.1111535784029427e-01  5.0527233948600259e-01  5.4277644513687551e-01  6.1439062463660976e-01  5.9372388188725100e-01  4.9746035044638265e-01  4.7110421155839716e-01  5.9064982878996797e-01  7.1728251742904747e-01  7.4868983191154115e-01  7.3543878749304425e-01  6.5644683691618688e-01  5.1141150755091513e-01  4.7024587655492428e-01  4.8704354006591832e-01  5.0192419166049840e-01  5.0842958925345139e-01  5.0902114858090974e-01  5.0636393143300740e-01  5.0250008801893631e-01  4.9891565263579934e-01  4.9660227491770975e-01  4.9607262890159232e-01  4.9737557010492911e-01  5.0015107714623863e-01  5.0373820178229622e-01  5.0731938404999688e-01  5.1006102502395689e-01  5.1120020699852975e-01  5.1003768606808919e-01  5.0583209688482866e-01  4.9764506350433302e-01  4.8424626623377781e-01  4.6432210324433715e-01  4.3878227228932704e-01  4.3126560767850680e-01  5.4048123151148308e-01  6.7244098279971021e-01  6.8848995026660453e-01  6.6980618711825102e-01  6.4918532953108954e-01  6.3275119242107669e-01  6.2241241678743631e-01  6.1889937024652397e-01  5.6740151651790260e-01  5.6610301550244013e-01  5.6240344932273012e-01  5.5683243152861284e-01  5.5010355112641074e-01  5.4293236767389019e-01  5.3588202546932362e-01  5.2927140591483268e-01  5.2315287822784162e-01  5.1735193224564124e-01  5.1155748876895601e-01  5.0544791554708191e-01  4.9882751753924603e-01  4.9173723830886124e-01  4.8450272202220529e-01  4.7769833954578922e-01  4.7203227948904852e-01  4.6818381599441405e-01  4.6663892286769104e-01  4.6756994377709948e-01  4.7079083812827999e-01  4.7579754123813545e-01  4.8188036535629614e-01  4.8827803679989823e-01  4.9433432521680037e-01  4.9961921838474260e-01  5.0398632436253765e-01  5.0755433990322929e-01  5.1061953709541397e-01  5.1352408246217984e-01  5.1651752104028759e-01  5.1965279655286123e-01  5.2275176639015664e-01  5.2545714612352401e-01  5.2735842617576412e-01  5.2814386634248844e-01  5.2770547577420490e-01  5.2613565507665494e-01  5.2361984673183082e-01  5.2031938255672261e-01  5.1636732428044463e-01  5.1200094739783630e-01  5.0769449083563312e-01  5.0411466113116599e-01  5.0187621240604485e-01  5.0126690914227279e-01  5.0213679063408467e-01  5.0400641912910571e-01  5.0630211517451418e-01  5.0858271057532767e-01  5.1066589532203810e-01  5.1262567978074813e-01  5.1467478396757016e-01  5.1696320691623354e-01  5.1932951493137813e-01  5.2105516707501254e-01  5.2075282015416502e-01  5.1681954341210767e-01  5.0945609133711622e-01  5.0319663415103888e-01  5.0201464581378730e-01  4.9311700737762104e-01  4.7640237827777188e-01  4.6448912463660974e-01  4.7839680076195185e-01  5.3979715382592697e-01  5.8442847644945584e-01  5.6089120209534116e-01  4.9651569685967101e-01  4.6653284302772696e-01  4.7729585950399323e-01  4.9363254182973937e-01  5.0431979611777944e-01  5.0876034434647910e-01  5.0877250891718051e-01  5.0625180292355576e-01  5.0277065935732335e-01  4.9953679378875215e-01  4.9738205335970775e-01  4.9674327057082857e-01  4.9765993202619735e-01  4.9981539484186288e-01  5.0262941223933033e-01  5.0538584312921664e-01  5.0735978818450411e-01  5.0789979448074229e-01  5.0642946282730261e-01  5.0236271300789170e-01  4.9497436319751337e-01  4.8331804846359616e-01  4.6634573685259889e-01  4.4379594761639191e-01  4.2111567733990318e-01  4.3389252504067410e-01  5.4467524044005244e-01  6.4731425977204160e-01  6.7211543858544265e-01  6.6630873285948455e-01  6.5580294589716837e-01  6.4806854502944444e-01  6.4532473351646302e-01  5.5169308045443866e-01  5.5069599670815284e-01  5.4785648924938102e-01  5.4358599784431927e-01  5.3844161135559065e-01  5.3298391981847126e-01  5.2765183834765339e-01  5.2268422508287049e-01  5.1809851697686593e-01  5.1372346772719069e-01  5.0927675764056946e-01  5.0447266724769546e-01  4.9913677400489814e-01  4.9329745182635326e-01  4.8722491345956187e-01  4.8140113725709921e-01  4.7642477159036289e-01  4.7287582692849345e-01  4.7117768846029073e-01  4.7149459101667485e-01  4.7369182234339119e-01  4.7736784207169419e-01  4.8194810606249172e-01  4.8681502814528610e-01  4.9144060331270101e-01  4.9548886603027942e-01  4.9886376819660438e-01  5.0169206670925648e-01  5.0424727718760864e-01  5.0683603329166582e-01  5.0967880437647528e-01  5.1282019829015058e-01  5.1609838042747558e-01  5.1918773241908456e-01  5.2170445578403213e-01  5.2333626293798952e-01  5.2393761739102029e-01  5.2354119402446930e-01  5.2228578507942125e-01  5.2032756434035055e-01  5.1782353079134036e-01  5.1500720235180408e-01  5.1226543357178367e-01  5.1009578883387141e-01  5.0892916675913247e-01  5.0893540159889217e-01  5.0994985811513704e-01  5.1156186645136792e-01  5.1329966617383782e-01  5.1481140039783457e-01  5.1597008773437025e-01  5.1687622432325997e-01  5.1776585288371724e-01  5.1885186415572471e-01  5.2013933000897283e-01  5.2127147631611315e-01  5.2149678281653911e-01  5.1990329878914976e-01  5.1601045880713259e-01  5.1036905029025426e-01  5.0411696521873872e-01  4.9778293572233701e-01  4.8999636181359602e-01  4.7953702531560016e-01  4.6865481813991666e-01  4.6327605518194948e-01  4.6345985060821232e-01  4.6143266047745413e-01  4.6310522079670258e-01  4.7382710590066490e-01  4.8748066122556838e-01  4.9876627375315052e-01  5.0566154259747609e-01  5.0841297885128522e-01  5.0809047993583412e-01  5.0591370578974793e-01  5.0299836270275267e-01  5.0025903772635594e-01  4.9835059516498309e-01  4.9762429619477672e-01  4.9811127905295594e-01  4.9954964860244017e-01  5.0145873792658280e-01  5.0324628376486391e-01  5.0431860192773137e-01  5.0415628943146018e-01  5.0232432002487426e-01  4.9840939228352882e-01  4.9191612053155226e-01  4.8219406715216345e-01  4.6849559500262977e-01  4.5031424848583601e-01  4.2855684041484432e-01  4.0923439136990891e-01  4.1555850033615754e-01  4.7993147152155019e-01  5.6969486925600121e-01  6.2234370183072030e-01  6.4269170404080411e-01  6.4966702220728867e-01  6.5135523658461725e-01  5.3388328585327061e-01  5.3320155057432106e-01  5.3126693492424104e-01  5.2837995173642094e-01  5.2494840279570654e-01  5.2138133665661235e-01  5.1799173501477747e-01  5.1493244551043760e-01  5.1217727827926951e-01  5.0954800045342574e-01  5.0677985654652913e-01  5.0361142978735973e-01  4.9987824453744761e-01  4.9558572375072490e-01  4.9093952098669691e-01  4.8632129753864967e-01  4.8221333024129176e-01  4.7909076801682160e-01  4.7731051326554785e-01  4.7702714956117792e-01  4.7815867544590712e-01  4.8041063970533432e-01  4.8335116253778576e-01  4.8651606733780506e-01  4.8951634379201392e-01  4.9212062897279840e-01  4.9429255027221392e-01  4.9617453904940528e-01  4.9802333961348938e-01  5.0011492569011973e-01  5.0264511916812515e-01  5.0565472132054323e-01  5.0900309782445885e-01  5.1240151216604202e-01  5.1549813511027376e-01  5.1798485497954505e-01  5.1968153895211866e-01  5.2055993309201098e-01  5.2070369854838483e-01  5.2024656749394771e-01  5.1934677389167783e-01  5.1821448643880619e-01  5.1714081746192397e-01  5.1645802972464860e-01  5.1642290163431770e-01  5.1709553952048304e-01  5.1829931677807206e-01  5.1968857942757352e-01  5.2088385910904189e-01  5.2160944687286948e-01  5.2178160928237327e-01  5.2152091234946518e-01  5.2108565848776445e-01  5.2074606474875884e-01  5.2063963930658408e-01  5.2066205971515234e-01  5.2045262662905400e-01  5.1952156839749120e-01  5.1750357818837855e-01  5.1437297234757517e-01  5.1035619281543576e-01  5.0547118339739794e-01  4.9927933397366053e-01  4.9141759220737891e-01  4.8256430706107595e-01  4.7471735333979659e-01  4.7039422651965379e-01  4.7129513498415865e-01  4.7703080566462280e-01  4.8550432050708953e-01  4.9417889736710829e-01  5.0110702705833332e-01  5.0544186855399986e-01  5.0721081137895629e-01  5.0693599732936145e-01  5.0533619016342035e-01  5.0314925116035136e-01  5.0102487055486478e-01  4.9944895866275374e-01  4.9868991543826618e-01  4.9877432990209924e-01  4.9950156031525472e-01  5.0049869213845821e-01  5.0130520946285684e-01  5.0146456716815946e-01  5.0059237390024902e-01  4.9839391060978316e-01  4.9462151061945547e-01  4.8899290626019232e-01  4.8112365472385310e-01  4.7054258064074028e-01  4.5685023516645601e-01  4.4006020542154578e-01  4.2128220865143312e-01  4.0386059064222407e-01  3.9593547622586450e-01  4.0881547612129254e-01  4.4018577804430897e-01  4.7670633394274087e-01  5.0539661929823176e-01  5.1620978242901416e-01  5.1535938232430967e-01  5.1497668342633707e-01  5.1390607788814568e-01  5.1235795462851419e-01  5.1061630572805394e-01  5.0896039535951787e-01  5.0759009669168731e-01  5.0657482718251035e-01  5.0583833217552598e-01  5.0518218240036528e-01  5.0434188986190853e-01  5.0306209248647282e-01  5.0117239069671871e-01  4.9864447052225547e-01  4.9561492142378549e-01  4.9236620205626158e-01  4.8926880809385181e-01  4.8669828690491673e-01  4.8494839370249476e-01  4.8416377846059255e-01  4.8431084886045184e-01  4.8519484957404757e-01  4.8651801241926923e-01  4.8796220674962670e-01  4.8927335221590901e-01  4.9032527399592724e-01  4.9114683134402876e-01  4.9190592279145195e-01  4.9285493382997653e-01  4.9425205319537258e-01  4.9627960236995128e-01  4.9898240772294811e-01  5.0224518637835702e-01  5.0581774571576832e-01  5.0938182582951008e-01  5.1263736682759331e-01  5.1537580139494898e-01  5.1751219324043585e-01  5.1907003044503497e-01  5.2014142712298383e-01  5.2085750620310733e-01  5.2138303775905637e-01  5.2191308709038442e-01  5.2263811351029432e-01  5.2367472858546871e-01  5.2499985203639088e-01  5.2643283316857170e-01  5.2768061892837403e-01  5.2842810743358248e-01  5.2844183727851612e-01  5.2765380873072931e-01  5.2619329312221474e-01  5.2434498784370887e-01  5.2244094555047871e-01  5.2072876762979636e-01  5.1927415932643506e-01  5.1794224047384585e-01  5.1646836025610321e-01  5.1458394449799660e-01  5.1211714902629046e-01  5.0898683340383688e-01  5.0511366067248953e-01  5.0040872328380004e-01  4.9496889831109164e-01  4.8936123910256424e-01  4.8469177196681679e-01  4.8223923328278834e-01  4.8277273478628180e-01  4.8607012756272361e-01  4.9104369044029073e-01  4.9632248250942579e-01  5.0079601429860421e-01  5.0384968019549015e-01  5.0534454850618382e-01  5.0547855473464831e-01  5.0463863822996580e-01  5.0328137028814746e-01  5.0184138165460990e-01  5.0066031493503294e-01  4.9993587403492984e-01  4.9969588734321424e-01  4.9980250248475577e-01  4.9998795951551478e-01  4.9991664127945989e-01  4.9925869273705981e-01  4.9775164256725690e-01  4.9522493378581550e-01  4.9157420934618656e-01  4.8669677707281667e-01  4.8042641258773860e-01  4.7251852615959078e-01  4.6272318720317462e-01  4.5094674910639249e-01  4.3745521823956174e-01  4.2307879837079604e-01  4.0930018939667107e-01  3.9806538258407670e-01  3.9148971375855385e-01  3.9028191072388196e-01  3.9234637785450555e-01  3.9374234623431481e-01  4.9750167678433499e-01  4.9737911451967215e-01  4.9706649504043648e-01  4.9671229751841711e-01  4.9651300840463619e-01  4.9665190774007301e-01  4.9723929759582530e-01  4.9827102494658809e-01  4.9961724085734732e-01  5.0104514151756518e-01  5.0227000837725455e-01  5.0302100814349160e-01  5.0310457732788716e-01  5.0244973085289257e-01  5.0112494297667831e-01  4.9932303343225132e-01  4.9731726516355251e-01  4.9539821983604859e-01  4.9380637609924172e-01  4.9267796480855924e-01  4.9201952770480006e-01  4.9171905026220292e-01  4.9159064443813366e-01  4.9143955810009304e-01  4.9112856953035317e-01  4.9062715875560431e-01  4.9003029804373538e-01  4.8954200947961929e-01  4.8942775374338243e-01  4.8994754770967852e-01  4.9128707313576181e-01  4.9350555715122019e-01  4.9651578011481917e-01  5.0010313291601549e-01  5.0397879778078758e-01  5.0785026807517564e-01  5.1148541224092958e-01  5.1474894377716163e-01  5.1760366514487444e-01  5.2008669003323083e-01  5.2228021822392778e-01  5.2428909975235416e-01  5.2622109499524361e-01  5.2815890306372637e-01  5.3012349710467710e-01  5.3204275660596811e-01  5.3374145154805064e-01  5.3496059060977708e-01  5.3540912298469567e-01  5.3484765625264807e-01  5.3318652339460482e-01  5.3055183683880625e-01  5.2726808984891593e-01  5.2374929787576052e-01  5.2035221402488507e-01  5.1726800191734212e-01  5.1449722099351147e-01  5.1190158031269339e-01  5.0929108734484352e-01  5.0649808740194824e-01  5.0341022503781263e-01  4.9997634500765209e-01  4.9623190346636004e-01  4.9236902736821431e-01  4.8880392282955309e-01  4.8614217349882172e-01  4.8498536327757985e-01  4.8565396819229451e-01  4.8800514911622023e-01  4.9147639185601871e-01  4.9531392717563172e-01  4.9882865583979846e-01  5.0155551722206526e-01  5.0329391961750836e-01  5.0406999248174056e-01  5.0406625896762369e-01  5.0354614210178861e-01  5.0278520412336181e-01  5.0201454757340447e-01  5.0137963541354391e-01  5.0091646761703190e-01  5.0054692675937684e-01  5.0009614968846283e-01  4.9933352770755168e-01  4.9803144880976752e-01  4.9602387283774974e-01  4.9323927623351566e-01  4.8968915526629880e-01  4.8541497581193482e-01  4.8042198286563653e-01  4.7464134528368335e-01  4.6795259209157797e-01  4.6026881198328912e-01  4.5165321799755836e-01  4.4241273393416997e-01  4.3311638133781089e-01  4.2451633807887817e-01  4.1735835675392829e-01  4.1217159049307400e-01  4.0913572111276958e-01  4.0815410785212758e-01  4.8159464739168661e-01  4.8167843431562424e-01  4.8197378566385296e-01  4.8259774393339688e-01  4.8369979685509118e-01  4.8540694013403757e-01  4.8776988888527006e-01  4.9072618309556926e-01  4.9409204119575512e-01  4.9758695373183121e-01  5.0088489596569152e-01  5.0367751354982826e-01  5.0573176771161554e-01  5.0692829854083254e-01  5.0727405784555990e-01  5.0688926296590731e-01  5.0597268799141559e-01  5.0475211025760347e-01  5.0343003331520297e-01  5.0213790724090368e-01  5.0091217870300442e-01  4.99700472535