<?xml version="1.0"?>
<VTKFile type="UnstructuredGrid"  version="0.1"  >
<UnstructuredGrid>
<Piece  NumberOfPoints="20201" NumberOfCells="40000">
<Points>
<DataArray  type="Float64"  NumberOfComponents="3"  format="ascii">0 0 0  2 0 0  4 0 0  6 0 0  8 0 0  10 0 0  12 0 0  14 0 0  16 0 0  18 0 0  20 0 0  22 0 0  24 0 0  26 0 0  28 0 0  30 0 0  32 0 0  34 0 0  36 0 0  38 0 0  40 0 0  42 0 0  44 0 0  46 0 0  48 0 0  50 0 0  52 0 0  54 0 0  56 0 0  58 0 0  60 0 0  62 0 0  64 0 0  66 0 0  68 0 0  70 0 0  72 0 0  74 0 0  76 0 0  78 0 0  80 0 0  82 0 0  84 0 0  86 0 0  88 0 0  90 0 0  92 0 0  94 0 0  96 0 0  98 0 0  100 0 0  102 0 0  104 0 0  106 0 0  108 0 0  110 0 0  112 0 0  114 0 0  116 0 0  118 0 0  120 0 0  122 0 0  124 0 0  126 0 0  128 0 0  130 0 0  132 0 0  134 0 0  136 0 0  138 0 0  140 0 0  142 0 0  144 0 0  146 0 0  148 0 0  150 0 0  152 0 0  154 0 0  156 0 0  158 0 0  160 0 0  162 0 0  164 0 0  166 0 0  168 0 0  170 0 0  172 0 0  174 0 0  176 0 0  178 0 0  180 0 0  182 0 0  184 0 0  186 0 0  188 0 0  190 0 0  192 0 0  194 0 0  196 0 0  198 0 0  200 0 0  0 2 0  2 2 0  4 2 0  6 2 0  8 2 0  10 2 0  12 2 0  14 2 0  16 2 0  18 2 0  20 2 0  22 2 0  24 2 0  26 2 0  28 2 0  30 2 0  32 2 0  34 2 0  36 2 0  38 2 0  40 2 0  42 2 0  44 2 0  46 2 0  48 2 0  50 2 0  52 2 0  54 2 0  56 2 0  58 2 0  60 2 0  62 2 0  64 2 0  66 2 0  68 2 0  70 2 0  72 2 0  74 2 0  76 2 0  78 2 0  80 2 0  82 2 0  84 2 0  86 2 0  88 2 0  90 2 0  92 2 0  94 2 0  96 2 0  98 2 0  100 2 0  102 2 0  104 2 0  106 2 0  108 2 0  110 2 0  112 2 0  114 2 0  116 2 0  118 2 0  120 2 0  122 2 0  124 2 0  126 2 0  128 2 0  130 2 0  132 2 0  134 2 0  136 2 0  138 2 0  140 2 0  142 2 0  144 2 0  146 2 0  148 2 0  150 2 0  152 2 0  154 2 0  156 2 0  158 2 0  160 2 0  162 2 0  164 2 0  166 2 0  168 2 0  170 2 0  172 2 0  174 2 0  176 2 0  178 2 0  180 2 0  182 2 0  184 2 0  186 2 0  188 2 0  190 2 0  192 2 0  194 2 0  196 2 0  198 2 0  200 2 0  0 4 0  2 4 0  4 4 0  6 4 0  8 4 0  10 4 0  12 4 0  14 4 0  16 4 0  18 4 0  20 4 0  22 4 0  24 4 0  26 4 0  28 4 0  30 4 0  32 4 0  34 4 0  36 4 0  38 4 0  40 4 0  42 4 0  44 4 0  46 4 0  48 4 0  50 4 0  52 4 0  54 4 0  56 4 0  58 4 0  60 4 0  62 4 0  64 4 0  66 4 0  68 4 0  70 4 0  72 4 0  74 4 0  76 4 0  78 4 0  80 4 0  82 4 0  84 4 0  86 4 0  88 4 0  90 4 0  92 4 0  94 4 0  96 4 0  98 4 0  100 4 0  102 4 0  104 4 0  106 4 0  108 4 0  110 4 0  112 4 0  114 4 0  116 4 0  118 4 0  120 4 0  122 4 0  124 4 0  126 4 0  128 4 0  130 4 0  132 4 0  134 4 0  136 4 0  138 4 0  140 4 0  142 4 0  144 4 0  146 4 0  148 4 0  150 4 0  152 4 0  154 4 0  156 4 0  158 4 0  160 4 0  162 4 0  164 4 0  166 4 0  168 4 0  170 4 0  172 4 0  174 4 0  176 4 0  178 4 0  180 4 0  182 4 0  184 4 0  186 4 0  188 4 0  190 4 0  192 4 0  194 4 0  196 4 0  198 4 0  200 4 0  0 6 0  2 6 0  4 6 0  6 6 0  8 6 0  10 6 0  12 6 0  14 6 0  16 6 0  18 6 0  20 6 0  22 6 0  24 6 0  26 6 0  28 6 0  30 6 0  32 6 0  34 6 0  36 6 0  38 6 0  40 6 0  42 6 0  44 6 0  46 6 0  48 6 0  50 6 0  52 6 0  54 6 0  56 6 0  58 6 0  60 6 0  62 6 0  64 6 0  66 6 0  68 6 0  70 6 0  72 6 0  74 6 0  76 6 0  78 6 0  80 6 0  82 6 0  84 6 0  86 6 0  88 6 0  90 6 0  92 6 0  94 6 0  96 6 0  98 6 0  100 6 0  102 6 0  104 6 0  106 6 0  108 6 0  110 6 0  112 6 0  114 6 0  116 6 0  118 6 0  120 6 0  122 6 0  124 6 0  126 6 0  128 6 0  130 6 0  132 6 0  134 6 0  136 6 0  138 6 0  140 6 0  142 6 0  144 6 0  146 6 0  148 6 0  150 6 0  152 6 0  154 6 0  156 6 0  158 6 0  160 6 0  162 6 0  164 6 0  166 6 0  168 6 0  170 6 0  172 6 0  174 6 0  176 6 0  178 6 0  180 6 0  182 6 0  184 6 0  186 6 0  188 6 0  190 6 0  192 6 0  194 6 0  196 6 0  198 6 0  200 6 0  0 8 0  2 8 0  4 8 0  6 8 0  8 8 0  10 8 0  12 8 0  14 8 0  16 8 0  18 8 0  20 8 0  22 8 0  24 8 0  26 8 0  28 8 0  30 8 0  32 8 0  34 8 0  36 8 0  38 8 0  40 8 0  42 8 0  44 8 0  46 8 0  48 8 0  50 8 0  52 8 0  54 8 0  56 8 0  58 8 0  60 8 0  62 8 0  64 8 0  66 8 0  68 8 0  70 8 0  72 8 0  74 8 0  76 8 0  78 8 0  80 8 0  82 8 0  84 8 0  86 8 0  88 8 0  90 8 0  92 8 0  94 8 0  96 8 0  98 8 0  100 8 0  102 8 0  104 8 0  106 8 0  108 8 0  110 8 0  112 8 0  114 8 0  116 8 0  118 8 0  120 8 0  122 8 0  124 8 0  126 8 0  128 8 0  130 8 0  132 8 0  134 8 0  136 8 0  138 8 0  140 8 0  142 8 0  144 8 0  146 8 0  148 8 0  150 8 0  152 8 0  154 8 0  156 8 0  158 8 0  160 8 0  162 8 0  164 8 0  166 8 0  168 8 0  170 8 0  172 8 0  174 8 0  176 8 0  178 8 0  180 8 0  182 8 0  184 8 0  186 8 0  188 8 0  190 8 0  192 8 0  194 8 0  196 8 0  198 8 0  200 8 0  0 10 0  2 10 0  4 10 0  6 10 0  8 10 0  10 10 0  12 10 0  14 10 0  16 10 0  18 10 0  20 10 0  22 10 0  24 10 0  26 10 0  28 10 0  30 10 0  32 10 0  34 10 0  36 10 0  38 10 0  40 10 0  42 10 0  44 10 0  46 10 0  48 10 0  50 10 0  52 10 0  54 10 0  56 10 0  58 10 0  60 10 0  62 10 0  64 10 0  66 10 0  68 10 0  70 10 0  72 10 0  74 10 0  76 10 0  78 10 0  80 10 0  82 10 0  84 10 0  86 10 0  88 10 0  90 10 0  92 10 0  94 10 0  96 10 0  98 10 0  100 10 0  102 10 0  104 10 0  106 10 0  108 10 0  110 10 0  112 10 0  114 10 0  116 10 0  118 10 0  120 10 0  122 10 0  124 10 0  126 10 0  128 10 0  130 10 0  132 10 0  134 10 0  136 10 0  138 10 0  140 10 0  142 10 0  144 10 0  146 10 0  148 10 0  150 10 0  152 10 0  154 10 0  156 10 0  158 10 0  160 10 0  162 10 0  164 10 0  166 10 0  168 10 0  170 10 0  172 10 0  174 10 0  176 10 0  178 10 0  180 10 0  182 10 0  184 10 0  186 10 0  188 10 0  190 10 0  192 10 0  194 10 0  196 10 0  198 10 0  200 10 0  0 12 0  2 12 0  4 12 0  6 12 0  8 12 0  10 12 0  12 12 0  14 12 0  16 12 0  18 12 0  20 12 0  22 12 0  24 12 0  26 12 0  28 12 0  30 12 0  32 12 0  34 12 0  36 12 0  38 12 0  40 12 0  42 12 0  44 12 0  46 12 0  48 12 0  50 12 0  52 12 0  54 12 0  56 12 0  58 12 0  60 12 0  62 12 0  64 12 0  66 12 0  68 12 0  70 12 0  72 12 0  74 12 0  76 12 0  78 12 0  80 12 0  82 12 0  84 12 0  86 12 0  88 12 0  90 12 0  92 12 0  94 12 0  96 12 0  98 12 0  100 12 0  102 12 0  104 12 0  106 12 0  108 12 0  110 12 0  112 12 0  114 12 0  116 12 0  118 12 0  120 12 0  122 12 0  124 12 0  126 12 0  128 12 0  130 12 0  132 12 0  134 12 0  136 12 0  138 12 0  140 12 0  142 12 0  144 12 0  146 12 0  148 12 0  150 12 0  152 12 0  154 12 0  156 12 0  158 12 0  160 12 0  162 12 0  164 12 0  166 12 0  168 12 0  170 12 0  172 12 0  174 12 0  176 12 0  178 12 0  180 12 0  182 12 0  184 12 0  186 12 0  188 12 0  190 12 0  192 12 0  194 12 0  196 12 0  198 12 0  200 12 0  0 14 0  2 14 0  4 14 0  6 14 0  8 14 0  10 14 0  12 14 0  14 14 0  16 14 0  18 14 0  20 14 0  22 14 0  24 14 0  26 14 0  28 14 0  30 14 0  32 14 0  34 14 0  36 14 0  38 14 0  40 14 0  42 14 0  44 14 0  46 14 0  48 14 0  50 14 0  52 14 0  54 14 0  56 14 0  58 14 0  60 14 0  62 14 0  64 14 0  66 14 0  68 14 0  70 14 0  72 14 0  74 14 0  76 14 0  78 14 0  80 14 0  82 14 0  84 14 0  86 14 0  88 14 0  90 14 0  92 14 0  94 14 0  96 14 0  98 14 0  100 14 0  102 14 0  104 14 0  106 14 0  108 14 0  110 14 0  112 14 0  114 14 0  116 14 0  118 14 0  120 14 0  122 14 0  124 14 0  126 14 0  128 14 0  130 14 0  132 14 0  134 14 0  136 14 0  138 14 0  140 14 0  142 14 0  144 14 0  146 14 0  148 14 0  150 14 0  152 14 0  154 14 0  156 14 0  158 14 0  160 14 0  162 14 0  164 14 0  166 14 0  168 14 0  170 14 0  172 14 0  174 14 0  176 14 0  178 14 0  180 14 0  182 14 0  184 14 0  186 14 0  188 14 0  190 14 0  192 14 0  194 14 0  196 14 0  198 14 0  200 14 0  0 16 0  2 16 0  4 16 0  6 16 0  8 16 0  10 16 0  12 16 0  14 16 0  16 16 0  18 16 0  20 16 0  22 16 0  24 16 0  26 16 0  28 16 0  30 16 0  32 16 0  34 16 0  36 16 0  38 16 0  40 16 0  42 16 0  44 16 0  46 16 0  48 16 0  50 16 0  52 16 0  54 16 0  56 16 0  58 16 0  60 16 0  62 16 0  64 16 0  66 16 0  68 16 0  70 16 0  72 16 0  74 16 0  76 16 0  78 16 0  80 16 0  82 16 0  84 16 0  86 16 0  88 16 0  90 16 0  92 16 0  94 16 0  96 16 0  98 16 0  100 16 0  102 16 0  104 16 0  106 16 0  108 16 0  110 16 0  112 16 0  114 16 0  116 16 0  118 16 0  120 16 0  122 16 0  124 16 0  126 16 0  128 16 0  130 16 0  132 16 0  134 16 0  136 16 0  138 16 0  140 16 0  142 16 0  144 16 0  146 16 0  148 16 0  150 16 0  152 16 0  154 16 0  156 16 0  158 16 0  160 16 0  162 16 0  164 16 0  166 16 0  168 16 0  170 16 0  172 16 0  174 16 0  176 16 0  178 16 0  180 16 0  182 16 0  184 16 0  186 16 0  188 16 0  190 16 0  192 16 0  194 16 0  196 16 0  198 16 0  200 16 0  0 18 0  2 18 0  4 18 0  6 18 0  8 18 0  10 18 0  12 18 0  14 18 0  16 18 0  18 18 0  20 18 0  22 18 0  24 18 0  26 18 0  28 18 0  30 18 0  32 18 0  34 18 0  36 18 0  38 18 0  40 18 0  42 18 0  44 18 0  46 18 0  48 18 0  50 18 0  52 18 0  54 18 0  56 18 0  58 18 0  60 18 0  62 18 0  64 18 0  66 18 0  68 18 0  70 18 0  72 18 0  74 18 0  76 18 0  78 18 0  80 18 0  82 18 0  84 18 0  86 18 0  88 18 0  90 18 0  92 18 0  94 18 0  96 18 0  98 18 0  100 18 0  102 18 0  104 18 0  106 18 0  108 18 0  110 18 0  112 18 0  114 18 0  116 18 0  118 18 0  120 18 0  122 18 0  124 18 0  126 18 0  128 18 0  130 18 0  132 18 0  134 18 0  136 18 0  138 18 0  140 18 0  142 18 0  144 18 0  146 18 0  148 18 0  150 18 0  152 18 0  154 18 0  156 18 0  158 18 0  160 18 0  162 18 0  164 18 0  166 18 0  168 18 0  170 18 0  172 18 0  174 18 0  176 18 0  178 18 0  180 18 0  182 18 0  184 18 0  186 18 0  188 18 0  190 18 0  192 18 0  194 18 0  196 18 0  198 18 0  200 18 0  0 20 0  2 20 0  4 20 0  6 20 0  8 20 0  10 20 0  12 20 0  14 20 0  16 20 0  18 20 0  20 20 0  22 20 0  24 20 0  26 20 0  28 20 0  30 20 0  32 20 0  34 20 0  36 20 0  38 20 0  40 20 0  42 20 0  44 20 0  46 20 0  48 20 0  50 20 0  52 20 0  54 20 0  56 20 0  58 20 0  60 20 0  62 20 0  64 20 0  66 20 0  68 20 0  70 20 0  72 20 0  74 20 0  76 20 0  78 20 0  80 20 0  82 20 0  84 20 0  86 20 0  88 20 0  90 20 0  92 20 0  94 20 0  96 20 0  98 20 0  100 20 0  102 20 0  104 20 0  106 20 0  108 20 0  110 20 0  112 20 0  114 20 0  116 20 0  118 20 0  120 20 0  122 20 0  124 20 0  126 20 0  128 20 0  130 20 0  132 20 0  134 20 0  136 20 0  138 20 0  140 20 0  142 20 0  144 20 0  146 20 0  148 20 0  150 20 0  152 20 0  154 20 0  156 20 0
[...]
<PointData  Scalars="f_271-2"> 
<DataArray  type="Float64"  Name="f_271-2"  format="ascii">6.4232055517643103e-07  6.1559734874834799e-07  5.4192967506440068e-07  4.3847370637068473e-07  3.2711136408118275e-07  2.2774610403338849e-07  1.5372535169016246e-07  1.1065352624337248e-07  9.7790017289027838e-08  1.1029632098523621e-07  1.4106500741471720e-07  1.8183194912533129e-07  2.2391676459670292e-07  2.5905927311729765e-07  2.8056113489466881e-07  2.8450786623418813e-07  2.7053000037039102e-07  2.4164140170229358e-07  2.0314594556088817e-07  1.6107365864983013e-07  1.2075125320484831e-07  8.5911572984292073e-08  5.8433653289968565e-08  3.8584613806694429e-08  2.5551155819808254e-08  1.8052723910024019e-08  1.4872657273067378e-08  1.5205368669783158e-08  1.8782231214512652e-08  2.5790412216392880e-08  3.6624900770553813e-08  5.1515798259222732e-08  7.0075604123595002e-08  9.0858918693310708e-08  1.1114008732538428e-07  1.2721443552559157e-07  1.3542426930297106e-07  1.3366964856146675e-07  1.2260111478641264e-07  1.0557595801649559e-07  8.7163315315671923e-08  7.1067620459931634e-08  5.8801366096377681e-08  4.9795726594266123e-08  4.2532605076884219e-08  3.5731273970393722e-08  2.8919562521653886e-08  2.2347410160604895e-08  1.6583628090030449e-08  1.2140926030650184e-08  9.2913085220857978e-09  8.0653745369880379e-09  8.3428323423745703e-09  9.8955539716637186e-09  1.2114008987552263e-08  1.2787097517858381e-08  7.5747860139234693e-09  1.3559820936996297e-09  1.6088444888197975e-10  2.6917767001542207e-11  5.1337316322079451e-12  5.2301542171176479e-11  4.6774113780596732e-10  4.5712933019423231e-10  6.0323895797048049e-11  2.9190087809966707e-12  2.2461398799451408e-13  7.5242335445570354e-13  1.3917892762177198e-11  1.5728189071228946e-10  2.1106954096927241e-09  1.8394162091661791e-08  4.3857961648059858e-08  4.6822963472969294e-08  3.7019753146702196e-08  2.5908936603883656e-08  1.7369548395066921e-08  1.1961581513341317e-08  9.1693141657673042e-09  8.4614205346399125e-09  9.8338988698800045e-09  1.4014188310440354e-08  2.2354762895527566e-08  3.6417819554173193e-08  5.7282343549807799e-08  8.4684442448343348e-08  1.1622243253434867e-07  1.4693957977103019e-07  1.6946669180545116e-07  1.7434726102218719e-07  1.4917723601013101e-07  8.1688335038358318e-08  1.3444665443341418e-08  3.4451765905266218e-10  7.2249139172170972e-12  -1.2271154239207349e-13  4.1911627260983913e-15  9.1994712488809063e-16  4.6926596058404608e-17  3.1260976160523374e-16  3.5551367980987280e-16  6.1859899335677689e-07  5.9313202289716924e-07  5.2285659902685911e-07  4.2397078471934415e-07  3.1722412223949444e-07  2.2161897470346359e-07  1.5004187391120417e-07  1.0805529004558094e-07  9.5145261323359291e-08  1.0681159650457403e-07  1.3629696920391610e-07  1.7565827624165720e-07  2.1649862334512468e-07  2.5079804305273203e-07  2.7203354863952982e-07  2.7636672431633939e-07  2.6338080708123288e-07  2.3592916341849249e-07  1.9908921483725199e-07  1.5866223471789914e-07  1.1979684492930532e-07  8.6124813446562925e-08  5.9500403119961606e-08  4.0223217570856937e-08  2.7542854561016841e-08  2.0245954311460146e-08  1.7167420406111994e-08  1.7526276902928538e-08  2.1048832486986355e-08  2.7891991327004904e-08  3.8405483027130721e-08  5.2774648769797328e-08  7.0588971561841148e-08  9.0427295287315023e-08  1.0965678134536691e-07  1.2473368466922059e-07  1.3218968831335738e-07  1.3006733790220235e-07  1.1903989811057655e-07  1.0235101850221264e-07  8.4381735811186472e-08  6.8675765327278648e-08  5.6683140872474069e-08  4.7869620469456691e-08  4.0793994826505857e-08  3.4236584324935885e-08  2.7743997273072972e-08  2.1549651837669378e-08  1.6192474829757620e-08  1.2160671218297852e-08  9.7145714159518244e-09  8.8831857767492737e-09  9.5479011021180278e-09  1.1484876187066045e-08  1.4121935997113373e-08  1.5405300916634407e-08  1.0550419696413308e-08  2.4959387695251790e-09  3.3875126386367608e-10  7.8409088620389292e-11  3.8571065558398506e-11  2.2988964630494115e-10  1.7401819020546646e-09  1.4010545714877169e-09  1.6401777710497408e-10  1.0355597335157829e-11  1.7808958997464916e-12  3.6665807790219484e-12  3.0380161158115030e-11  2.6284465602083492e-10  3.0799028977503973e-09  2.2344281087079962e-08  4.6526620703456206e-08  4.7951786693834303e-08  3.7963515255426143e-08  2.6996759982511185e-08  1.8569620420832201e-08  1.3181078423985676e-08  1.0336460048700730e-08  9.5345451870765665e-09  1.0781327023962368e-08  1.4783947973656842e-08  2.2847799414069921e-08  3.6477240737068629e-08  5.6709858080092217e-08  8.3290983573084525e-08  1.1391107699853184e-07  1.4380905182541559e-07  1.6593229392847086e-07  1.7136281637603296e-07  1.4894298227596087e-07  8.7460545991066766e-08  1.8042357709009863e-08  7.0265748862865254e-10  1.8451469645870845e-11  -4.4714567261756545e-15  5.7956913422903188e-14  -2.2113550574991143e-15  8.2447989000648864e-16  4.7599626692596300e-16  5.4032508850133225e-16  5.5269342890373439e-07  5.3065686044592352e-07  4.6966465517993096e-07  3.8333938199692201e-07  2.8936103079843006e-07  2.0425231749413179e-07  1.3958854115907501e-07  1.0075798123580637e-07  8.7822679093219224e-08  9.7190664000647794e-08  1.2307194538371560e-07  1.5843189130840057e-07  1.9569037536429202e-07  2.2752583791391344e-07  2.4792741698739384e-07  2.5328412117811400e-07  2.4305612596255763e-07  2.1965327846629695e-07  1.8752094744842964e-07  1.5181675454479197e-07  1.1718195390883264e-07  8.6952130984642388e-08  6.2896543028399976e-08  4.5389565010691159e-08  3.3841634128116435e-08  2.7214263504091226e-08  2.4476477881469942e-08  2.4910100611809335e-08  2.8226431103589574e-08  3.4502941283818518e-08  4.3974340854201615e-08  5.6718176780323824e-08  7.2281039877916609e-08  8.9331665803643577e-08  1.0551425083024540e-07  1.1774252152805195e-07  1.2307286725300662e-07  1.1993267298720461e-07  1.0904445221242427e-07  9.3325885423471426e-08  7.6630325289553852e-08  6.2051664382375624e-08  5.0861258626127209e-08  4.2614053739708255e-08  3.6077298787535740e-08  3.0201009161603192e-08  2.4590138492633222e-08  1.9442414874283479e-08  1.5224469437977617e-08  1.2364210903528736e-08  1.1091813167892815e-08  1.1427271471734488e-08  1.3244933529473156e-08  1.6313862150901539e-08  2.0132545099763371e-08  2.3100623654034930e-08  2.0623086193515718e-08  9.7288663042452292e-09  2.3889248710823609e-09  7.3203617168947265e-10  6.9185089180836962e-10  3.1333531359260206e-09  1.0642350761697664e-08  7.3643087218618515e-09  1.0053504549353946e-09  1.0463844414125176e-10  3.4075613937811154e-11  4.5035825066510298e-11  1.6792119047399269e-10  9.6357063436609019e-10  8.3645368211123578e-09  3.4664753077749006e-08  5.3105027056503864e-08  5.1000302025942095e-08  4.0872319486450859e-08  3.0491028889013661e-08  2.2496620108793584e-08  1.7234817762925431e-08  1.4269020888489804e-08  1.3182463122317519e-08  1.4013813857169039e-08  1.7422082023821417e-08  2.4591528186484939e-08  3.6874752754998408e-08  5.5200694397142072e-08  7.9343115844387125e-08  1.0724762327609483e-07  1.3469118250858174e-07  1.5547681370836226e-07  1.6204739382731226e-07  1.4598975266685191e-07  9.9448330434817413e-08  3.4148913869150452e-08  3.2958232484626601e-09  1.1218498685986235e-10  8.6421972793816271e-12  2.3208869454309003e-13  2.5634306254513209e-14  -5.5694178817166782e-15  -3.3759705552663090e-15  -2.8434374048874765e-15  4.5846933426249553e-07  4.4117298314551305e-07  3.9306335271072717e-07  3.2431714320025806e-07  2.4843862262097743e-07  1.7847666536375612e-07  1.2405201250874794e-07  9.0145111845595741e-08  7.7488596435798336e-08  8.3694024370570273e-08  1.0433208388486863e-07  1.3370701421403691e-07  1.6548465235385125e-07  1.9342995320586481e-07  2.1233989764858809e-07  2.1898250315843377e-07  2.1267454170304356e-07  1.9520577323677949e-07  1.7011420540365579e-07  1.4161596626607748e-07  1.1359055938699925e-07  8.8903683756898439e-08  6.9152144430548636e-08  5.4766082632159623e-08  4.5337349805232678e-08  4.0034075841919258e-08  3.7982292501167712e-08  3.8532187836886062e-08  4.1370242259917979e-08  4.6478190513444382e-08  5.3965623293038245e-08  6.3813841344701273e-08  7.5577976916898921e-08  8.8126327820451253e-08  9.9556531679470152e-08  1.0746507685396536e-07  1.0965171335779893e-07  1.0505982489971682e-07  9.4440876312644816e-08  8.0216052865702836e-08  6.5468260369785936e-08  5.2636575034769574e-08  4.2719575768699044e-08  3.5378180166651375e-08  2.9662730552135865e-08  2.4767517878236396e-08  2.0400805967929218e-08  1.6740654622160324e-08  1.4182562522704390e-08  1.3091309248432951e-08  1.3660528945026446e-08  1.5883229808346002e-08  1.9588002169108411e-08  2.4476578037068686e-08  3.0054958635926535e-08  3.5212102642768474e-08  3.7083134051804672e-08  3.0739312394839182e-08  1.8127921197909936e-08  1.0699958141663707e-08  1.1693184406603998e-08  2.2687207627681808e-08  3.5251693194014592e-08  2.6661919140508785e-08  7.5773026108097959e-09  1.2841325983399219e-09  4.4895441483280339e-10  4.8987542157609488e-10  1.3307204287817987e-09  6.2994141846022806e-09  2.5805330343369903e-08  5.1737248826086863e-08  6.0320555792216907e-08  5.5352003098868011e-08  4.6018825052775053e-08  3.7042776356801331e-08  3.0059559753648002e-08  2.5220929407594794e-08  2.2164426942409214e-08  2.0593948827540041e-08  2.0610980541582075e-08  2.2835052962863014e-08  2.8312937592897751e-08  3.8214432638543708e-08  5.3339069869479702e-08  7.3514999104404000e-08  9.7053485632558079e-08  1.2048696711009869e-07  1.3878458326919308e-07  1.4605719678329898e-07  1.3655208594413808e-07  1.0610046621699718e-07  5.7177689586349989e-08  1.4566367872355102e-08  1.4536779288968748e-09  9.9713887617883831e-11  9.3281454701828973e-12  9.6554301562295766e-13  1.9706892619355016e-13  8.3048277851767575e-14  6.6117564472460064e-14  3.5364197137222110e-07  3.4135976947015066e-07  3.0696411336517118e-07  2.5716929187302848e-07  2.0117749220297711e-07  1.4830131152866803e-07  1.0587377941845757e-07  7.8170584717828876e-08  6.6414402219674995e-08  6.9383286620094846e-08  8.4103388329090247e-08  1.0641392309498932e-07  1.3148282121383177e-07  1.5442871631033174e-07  1.7108611689618264e-07  1.7875770876392712e-07  1.7668141610587625e-07  1.6600339719117220e-07  1.4926167189936622e-07  1.2959717648666857e-07  1.0998160179962199e-07  9.2673701083779804e-08  7.8979321010398767e-08  6.9283228604219272e-08  6.3268845046913994e-08  6.0228840350449736e-08  5.9375940074359430e-08  6.0081450633190783e-08  6.1996346933747700e-08  6.5041614420791050e-08  6.9283304101536529e-08  7.4727907906410644e-08  8.1088746196586418e-08  8.7596226129405298e-08  9.2956603023605689e-08  9.5571347936369490e-08  9.4047484571188982e-08  8.7836110267937983e-08  7.7643799776818762e-08  6.5281403784542053e-08  5.2940173849382963e-08  4.2302705047523101e-08  3.4028003996520428e-08  2.7855543341581482e-08  2.3127346032988569e-08  1.9318011650455054e-08  1.6291329740082616e-08  1.4262378562544096e-08  1.3605857524870388e-08  1.4657345502663079e-08  1.7581301993384035e-08  2.2314751300764831e-08  2.8569225954145165e-08  3.5866915013073129e-08  4.3565168546408481e-08  5.0768222116983290e-08  5.6011843926584745e-08  5.7069802143798147e-08  5.2760994719291753e-08  4.7762083549884251e-08  4.9489586374371121e-08  5.7829600794200578e-08  6.2964271039131093e-08  5.4548208726719335e-08  3.2374846276031541e-08  1.3541158514433016e-08  6.8846947544452103e-09  6.8017887159352142e-09  1.2548964582299168e-08  2.8838438732245207e-08  5.1216237734860069e-08  6.4473861188687730e-08  6.5814325499754465e-08  6.0764084952342583e-08  5.3914196938990800e-08  4.7594339205716485e-08  4.2546233395721373e-08  3.8693373562613165e-08  3.5716651384361468e-08  3.3446069790210145e-08  3.2086864420691643e-08  3.2282977934223913e-08  3.5014570154514177e-08  4.1333226145806210e-08  5.1961821046910423e-08  6.6828448347893708e-08  8.4660704344399035e-08  1.0281125926923875e-07  1.1747037945027925e-07  1.2431814806942099e-07  1.1953187437234047e-07  1.0104220627464796e-07  7.0233253452989656e-08  3.4802137692241141e-08  1.0117027347549168e-08  1.7442564284773896e-09  2.4364255789562437e-10  3.4667426496691335e-11  4.8607702034296154e-12  5.0875262709817738e-13  -5.5847852029615541e-14  2.5450114012503309e-07  2.4664870323359168e-07  2.2447485820399888e-07  1.9186337018504480e-07  1.5437400248775716e-07  1.1796834060361786e-07  8.7704781000754789e-08  6.6894006253441349e-08  5.6891064706922524e-08  5.7328499505585462e-08  6.6492492568203289e-08  8.1689542448099982e-08  9.9626574005722091e-08  1.1688177786923294e-07  1.3047027707133158e-07  1.3838868078004671e-07  1.3995618512135607e-07  1.3581796139152009e-07  1.2761468068085858e-07  1.1745612232217585e-07  1.0738430973471033e-07  9.8966954475103540e-08  9.3081242356998145e-08  8.9885061838329972e-08  8.8941659938155372e-08  8.9449800213968555e-08  9.0519905758868893e-08  9.1426949221323597e-08  9.1773647968346834e-08  9.1521711265058871e-08  9.0890060619086370e-08  9.0160266215095249e-08  8.9456002172294228e-08  8.8574190766423042e-08  8.6945964806177072e-08  8.3785867935960555e-08  7.8421200509012071e-08  7.0677403241962013e-08  6.1099182578840315e-08  5.0824625831581395e-08  4.1135362609066671e-08  3.2942803916264589e-08  2.6525909326474810e-08  2.1646107451128462e-08  1.7899830679543918e-08  1.5052358723387035e-08  1.3182036081263368e-08  1.2626595217882966e-08  1.3823542996472932e-08  1.7137786012277804e-08  2.2722517661488579e-08  3.0425380076094778e-08  3.9751218802538783e-08  4.9900725548220733e-08  5.9885201491928636e-08  6.8669279786187722e-08  7.5277038421709658e-08  7.8928684263563841e-08  7.9538849706726562e-08  7.8509105189584690e-08  7.8113717609922604e-08  7.8593251308919234e-08  7.7356338324216449e-08  7.1218006981696195e-08  5.8962047828750212e-08  4.4302624647687206e-08  3.4811566241598620e-08  3.4237037191019938e-08  4.2069206966040260e-08  5.4452952749271372e-08  6.4638858590004652e-08  6.9271881934367555e-08  6.9486731029064171e-08  6.7574979638800827e-08  6.5230632840032986e-08  6.3160682830975456e-08  6.1317738057795886e-08  5.9298236681532756e-08  5.6721539101525732e-08  5.3508062129042516e-08  5.0020400386616538e-08  4.7057381333049081e-08  4.5707191071558268e-08  4.7080329051589797e-08  5.1963292473176242e-08  6.0460072895923394e-08  7.1715453766540577e-08  8.3830225617766975e-08  9.4064316022946291e-08  9.9363781903975824e-08  9.7152874984771624e-08  8.6240948751546468e-08  6.7621900675079055e-08  4.4867630542668138e-08  2.3646910203335269e-08  9.4244442969390214e-09  2.9216273807632589e-09  8.3290911615480468e-10  2.8769790111368025e-10  1.4947022436118609e-10  1.2131224460460554e-10  1.7235181088697349e-07  1.6784729049532385e-07  1.5502360496273031e-07  1.3587538819495050e-07  1.1340149433488605e-07  9.1013181676649574e-08  7.1807320360469481e-08  5.7998712465640265e-08  5.0684279481813052e-08  4.9890445694643559e-08  5.4755366833260754e-08  6.3750664238236234e-08  7.4938178560244244e-08  8.6287488793675384e-08  9.6038999061902743e-08  1.0303502774554612e-07  1.0691506024468216e-07  1.0810738949215981e-07  1.0762686479856956e-07  1.0675644498137964e-07  1.0670996741036658e-07  1.0834859863885207e-07  1.1198849550200095e-07  1.1732064506736017e-07  1.2346359328661602e-07  1.2916097049547036e-07  1.3309817855049307e-07  1.3425516796734503e-07  1.3217389787766730e-07  1.2703892106665650e-07  1.1954739964764493e-07  1.1063480354759883e-07  1.0117185850805383e-07  9.1740894036394637e-08  8.2557526906952261e-08  7.3552050732246197e-08  6.4569827709282636e-08  5.5593959217951389e-08  4.6865086650182289e-08  3.8816588048112838e-08  3.1860582710483066e-08  2.6173418099253544e-08  2.1636956298607357e-08  1.7976506001631932e-08  1.4995187956481535e-08  1.2753756770552211e-08  1.1606757828145498e-08  1.2106477754247020e-08  1.4842096470129445e-08  2.0270412326803265e-08  2.8556446433828485e-08  3.9431977916155787e-08  5.2112272146805320e-08  6.5341492315721182e-08  7.7607256302407005e-08  8.7475241575769132e-08  9.3921610155086465e-08  9.6561977773762279e-08  9.5752974803645202e-08  9.2509551060939228e-08  8.8071679347646697e-08  8.3227708923332493e-08  7.7967083997102710e-08  7.1831264926041713e-08  6.4729361386098882e-08  5.7698993895996435e-08  5.2885674682058302e-08  5.2106506744626279e-08  5.5150884065953974e-08  6.0022351980500851e-08  6.4804710287470155e-08  6.8866251477235250e-08  7.2564520210376072e-08  7.6430721248286081e-08  8.0577827543852634e-08  8.4540228453171581e-08  8.7443374514143021e-08  8.8348926382125337e-08  8.6620706295663703e-08  8.2188101689597663e-08  7.5637961527973658e-08  6.8123265956496870e-08  6.1118387894125391e-08  5.6077435398906556e-08  5.4070836523733067e-08  5.5482275450677768e-08  5.9837395333074423e-08  6.5813410900856478e-08  7.1454383069822963e-08  7.4586746478002328e-08  7.3382138834384534e-08  6.6948406855780311e-08  5.5760330159494653e-08  4.1701497756319312e-08  2.7542280100012491e-08  1.5899815246999139e-08  8.1579366341264915e-09  4.0280105872882190e-09  2.2247659670618503e-09  1.5621657838297317e-09  1.4020436950557969e-09  1.1256354735121782e-07  1.1018341776029712e-07  1.0340917638708164e-07  9.3300410965759928e-08  8.1452496540007201e-08  6.9681341134345679e-08  5.9629186563837166e-08  5.2450165926057455e-08  4.8677682528792199e-08  4.8257559114763650e-08  5.0671339567417323e-08  5.5096182012595821e-08  6.0589196969764326e-08  6.6290373935273805e-08  7.1612754039111669e-08  7.6369170032555071e-08  8.0796958476260208e-08  8.5478085603094880e-08  9.1185858696162954e-08  9.8699580886122541e-08  1.0861351358186820e-07  1.2114564691639500e-07  1.3595276212271547e-07  1.5199359312994701e-07  1.6752885798522124e-07  1.8035245763600421e-07  1.8826858697650147e-07  1.8968533453594145e-07  1.8408431582508468e-07  1.7215145063623343e-07  1.5551976482128568e-07  1.3626599704713418e-07  1.1638926132805070e-07  9.7450734661054984e-08  8.0437300975043512e-08  6.5812929568470627e-08  5.3672842642358013e-08  4.3908003344075407e-08  3.6308572925744232e-08  3.0582756206822640e-08  2.6329822285348407e-08  2.3045722385536265e-08  2.0219256848640513e-08  1.7503336567217439e-08  1.4877107083507083e-08  1.2708005829960173e-08  1.1681443116659864e-08  1.2638047401422017e-08  1.6385561448689122e-08  2.3519470153477240e-08  3.4238657621518749e-08  4.8149206541272261e-08  6.4126088376719415e-08  8.0367442532850728e-08  9.4726059518582237e-08  1.0524294935233859e-07  1.1066825598900959e-07  1.1075417400154338e-07  1.0622817688913459e-07  9.8489693637259655e-08  8.9151668978613100e-08  7.9592572722213960e-08  7.0695713047630189e-08  6.2877660472962631e-08  5.6348532113305765e-08  5.1397322851471430e-08  4.8456023445528416e-08  4.7866238049874957e-08  4.9616921627959970e-08  5.3433732834731833e-08  5.9127656628521172e-08  6.6752323323960226e-08  7.6402657599166026e-08  8.7839718093673778e-08  1.0020516399382807e-07  1.1199247384087047e-07  1.2131482788195218e-07  1.2638538334078983e-07  1.2603518122414839e-07  1.2007877815028208e-07  1.0940597117860913e-07  9.5782773092791111e-08  8.1431802780819410e-08  6.8514029127178304e-08  5.8653462134776095e-08  5.2626180222653974e-08  5.0272248668105140e-08  5.0615248131481907e-08  5.2133471691380064e-08  5.3126585486074707e-08  5.2127232016899646e-08  4.8287551372290787e-08  4.1633776866273528e-08  3.3069618539029277e-08  2.4066775282336762e-08  1.6121507926635240e-08  1.0213473601645351e-08  6.5448843231189888e-09  4.6766000190355676e-09  3.9235668559402364e-09  3.7393096276171766e-09  7.5613715020614641e-08  7.4236405788668622e-08  7.0447225896355005e-08  6.5162574026864658e-08  5.9581579909348247e-08  5.4830573197713930e-08  5.1675156404291322e-08  5.0387273144759814e-08  5.0774127333824253e-08  5.2313250765148989e-08  5.4330609796362817e-08  5.6190575074597507e-08  5.7486620991747337e-08  5.8202898049259501e-08  5.8789482583423747e-08  6.0107279554619614e-08  6.3256922308461636e-08  6.9361496355567485e-08  7.9378284394411081e-08  9.3968460370500323e-08  1.1339236403097913e-07  1.3736