<?xml version="1.0"?>
<VTKFile type="UnstructuredGrid"  version="0.1"  >
<UnstructuredGrid>
<Piece  NumberOfPoints="20201" NumberOfCells="40000">
<Points>
<DataArray  type="Float64"  NumberOfComponents="3"  format="ascii">0 0 0  2 0 0  4 0 0  6 0 0  8 0 0  10 0 0  12 0 0  14 0 0  16 0 0  18 0 0  20 0 0  22 0 0  24 0 0  26 0 0  28 0 0  30 0 0  32 0 0  34 0 0  36 0 0  38 0 0  40 0 0  42 0 0  44 0 0  46 0 0  48 0 0  50 0 0  52 0 0  54 0 0  56 0 0  58 0 0  60 0 0  62 0 0  64 0 0  66 0 0  68 0 0  70 0 0  72 0 0  74 0 0  76 0 0  78 0 0  80 0 0  82 0 0  84 0 0  86 0 0  88 0 0  90 0 0  92 0 0  94 0 0  96 0 0  98 0 0  100 0 0  102 0 0  104 0 0  106 0 0  108 0 0  110 0 0  112 0 0  114 0 0  116 0 0  118 0 0  120 0 0  122 0 0  124 0 0  126 0 0  128 0 0  130 0 0  132 0 0  134 0 0  136 0 0  138 0 0  140 0 0  142 0 0  144 0 0  146 0 0  148 0 0  150 0 0  152 0 0  154 0 0  156 0 0  158 0 0  160 0 0  162 0 0  164 0 0  166 0 0  168 0 0  170 0 0  172 0 0  174 0 0  176 0 0  178 0 0  180 0 0  182 0 0  184 0 0  186 0 0  188 0 0  190 0 0  192 0 0  194 0 0  196 0 0  198 0 0  200 0 0  0 2 0  2 2 0  4 2 0  6 2 0  8 2 0  10 2 0  12 2 0  14 2 0  16 2 0  18 2 0  20 2 0  22 2 0  24 2 0  26 2 0  28 2 0  30 2 0  32 2 0  34 2 0  36 2 0  38 2 0  40 2 0  42 2 0  44 2 0  46 2 0  48 2 0  50 2 0  52 2 0  54 2 0  56 2 0  58 2 0  60 2 0  62 2 0  64 2 0  66 2 0  68 2 0  70 2 0  72 2 0  74 2 0  76 2 0  78 2 0  80 2 0  82 2 0  84 2 0  86 2 0  88 2 0  90 2 0  92 2 0  94 2 0  96 2 0  98 2 0  100 2 0  102 2 0  104 2 0  106 2 0  108 2 0  110 2 0  112 2 0  114 2 0  116 2 0  118 2 0  120 2 0  122 2 0  124 2 0  126 2 0  128 2 0  130 2 0  132 2 0  134 2 0  136 2 0  138 2 0  140 2 0  142 2 0  144 2 0  146 2 0  148 2 0  150 2 0  152 2 0  154 2 0  156 2 0  158 2 0  160 2 0  162 2 0  164 2 0  166 2 0  168 2 0  170 2 0  172 2 0  174 2 0  176 2 0  178 2 0  180 2 0  182 2 0  184 2 0  186 2 0  188 2 0  190 2 0  192 2 0  194 2 0  196 2 0  198 2 0  200 2 0  0 4 0  2 4 0  4 4 0  6 4 0  8 4 0  10 4 0  12 4 0  14 4 0  16 4 0  18 4 0  20 4 0  22 4 0  24 4 0  26 4 0  28 4 0  30 4 0  32 4 0  34 4 0  36 4 0  38 4 0  40 4 0  42 4 0  44 4 0  46 4 0  48 4 0  50 4 0  52 4 0  54 4 0  56 4 0  58 4 0  60 4 0  62 4 0  64 4 0  66 4 0  68 4 0  70 4 0  72 4 0  74 4 0  76 4 0  78 4 0  80 4 0  82 4 0  84 4 0  86 4 0  88 4 0  90 4 0  92 4 0  94 4 0  96 4 0  98 4 0  100 4 0  102 4 0  104 4 0  106 4 0  108 4 0  110 4 0  112 4 0  114 4 0  116 4 0  118 4 0  120 4 0  122 4 0  124 4 0  126 4 0  128 4 0  130 4 0  132 4 0  134 4 0  136 4 0  138 4 0  140 4 0  142 4 0  144 4 0  146 4 0  148 4 0  150 4 0  152 4 0  154 4 0  156 4 0  158 4 0  160 4 0  162 4 0  164 4 0  166 4 0  168 4 0  170 4 0  172 4 0  174 4 0  176 4 0  178 4 0  180 4 0  182 4 0  184 4 0  186 4 0  188 4 0  190 4 0  192 4 0  194 4 0  196 4 0  198 4 0  200 4 0  0 6 0  2 6 0  4 6 0  6 6 0  8 6 0  10 6 0  12 6 0  14 6 0  16 6 0  18 6 0  20 6 0  22 6 0  24 6 0  26 6 0  28 6 0  30 6 0  32 6 0  34 6 0  36 6 0  38 6 0  40 6 0  42 6 0  44 6 0  46 6 0  48 6 0  50 6 0  52 6 0  54 6 0  56 6 0  58 6 0  60 6 0  62 6 0  64 6 0  66 6 0  68 6 0  70 6 0  72 6 0  74 6 0  76 6 0  78 6 0  80 6 0  82 6 0  84 6 0  86 6 0  88 6 0  90 6 0  92 6 0  94 6 0  96 6 0  98 6 0  100 6 0  102 6 0  104 6 0  106 6 0  108 6 0  110 6 0  112 6 0  114 6 0  116 6 0  118 6 0  120 6 0  122 6 0  124 6 0  126 6 0  128 6 0  130 6 0  132 6 0  134 6 0  136 6 0  138 6 0  140 6 0  142 6 0  144 6 0  146 6 0  148 6 0  150 6 0  152 6 0  154 6 0  156 6 0  158 6 0  160 6 0  162 6 0  164 6 0  166 6 0  168 6 0  170 6 0  172 6 0  174 6 0  176 6 0  178 6 0  180 6 0  182 6 0  184 6 0  186 6 0  188 6 0  190 6 0  192 6 0  194 6 0  196 6 0  198 6 0  200 6 0  0 8 0  2 8 0  4 8 0  6 8 0  8 8 0  10 8 0  12 8 0  14 8 0  16 8 0  18 8 0  20 8 0  22 8 0  24 8 0  26 8 0  28 8 0  30 8 0  32 8 0  34 8 0  36 8 0  38 8 0  40 8 0  42 8 0  44 8 0  46 8 0  48 8 0  50 8 0  52 8 0  54 8 0  56 8 0  58 8 0  60 8 0  62 8 0  64 8 0  66 8 0  68 8 0  70 8 0  72 8 0  74 8 0  76 8 0  78 8 0  80 8 0  82 8 0  84 8 0  86 8 0  88 8 0  90 8 0  92 8 0  94 8 0  96 8 0  98 8 0  100 8 0  102 8 0  104 8 0  106 8 0  108 8 0  110 8 0  112 8 0  114 8 0  116 8 0  118 8 0  120 8 0  122 8 0  124 8 0  126 8 0  128 8 0  130 8 0  132 8 0  134 8 0  136 8 0  138 8 0  140 8 0  142 8 0  144 8 0  146 8 0  148 8 0  150 8 0  152 8 0  154 8 0  156 8 0  158 8 0  160 8 0  162 8 0  164 8 0  166 8 0  168 8 0  170 8 0  172 8 0  174 8 0  176 8 0  178 8 0  180 8 0  182 8 0  184 8 0  186 8 0  188 8 0  190 8 0  192 8 0  194 8 0  196 8 0  198 8 0  200 8 0  0 10 0  2 10 0  4 10 0  6 10 0  8 10 0  10 10 0  12 10 0  14 10 0  16 10 0  18 10 0  20 10 0  22 10 0  24 10 0  26 10 0  28 10 0  30 10 0  32 10 0  34 10 0  36 10 0  38 10 0  40 10 0  42 10 0  44 10 0  46 10 0  48 10 0  50 10 0  52 10 0  54 10 0  56 10 0  58 10 0  60 10 0  62 10 0  64 10 0  66 10 0  68 10 0  70 10 0  72 10 0  74 10 0  76 10 0  78 10 0  80 10 0  82 10 0  84 10 0  86 10 0  88 10 0  90 10 0  92 10 0  94 10 0  96 10 0  98 10 0  100 10 0  102 10 0  104 10 0  106 10 0  108 10 0  110 10 0  112 10 0  114 10 0  116 10 0  118 10 0  120 10 0  122 10 0  124 10 0  126 10 0  128 10 0  130 10 0  132 10 0  134 10 0  136 10 0  138 10 0  140 10 0  142 10 0  144 10 0  146 10 0  148 10 0  150 10 0  152 10 0  154 10 0  156 10 0  158 10 0  160 10 0  162 10 0  164 10 0  166 10 0  168 10 0  170 10 0  172 10 0  174 10 0  176 10 0  178 10 0  180 10 0  182 10 0  184 10 0  186 10 0  188 10 0  190 10 0  192 10 0  194 10 0  196 10 0  198 10 0  200 10 0  0 12 0  2 12 0  4 12 0  6 12 0  8 12 0  10 12 0  12 12 0  14 12 0  16 12 0  18 12 0  20 12 0  22 12 0  24 12 0  26 12 0  28 12 0  30 12 0  32 12 0  34 12 0  36 12 0  38 12 0  40 12 0  42 12 0  44 12 0  46 12 0  48 12 0  50 12 0  52 12 0  54 12 0  56 12 0  58 12 0  60 12 0  62 12 0  64 12 0  66 12 0  68 12 0  70 12 0  72 12 0  74 12 0  76 12 0  78 12 0  80 12 0  82 12 0  84 12 0  86 12 0  88 12 0  90 12 0  92 12 0  94 12 0  96 12 0  98 12 0  100 12 0  102 12 0  104 12 0  106 12 0  108 12 0  110 12 0  112 12 0  114 12 0  116 12 0  118 12 0  120 12 0  122 12 0  124 12 0  126 12 0  128 12 0  130 12 0  132 12 0  134 12 0  136 12 0  138 12 0  140 12 0  142 12 0  144 12 0  146 12 0  148 12 0  150 12 0  152 12 0  154 12 0  156 12 0  158 12 0  160 12 0  162 12 0  164 12 0  166 12 0  168 12 0  170 12 0  172 12 0  174 12 0  176 12 0  178 12 0  180 12 0  182 12 0  184 12 0  186 12 0  188 12 0  190 12 0  192 12 0  194 12 0  196 12 0  198 12 0  200 12 0  0 14 0  2 14 0  4 14 0  6 14 0  8 14 0  10 14 0  12 14 0  14 14 0  16 14 0  18 14 0  20 14 0  22 14 0  24 14 0  26 14 0  28 14 0  30 14 0  32 14 0  34 14 0  36 14 0  38 14 0  40 14 0  42 14 0  44 14 0  46 14 0  48 14 0  50 14 0  52 14 0  54 14 0  56 14 0  58 14 0  60 14 0  62 14 0  64 14 0  66 14 0  68 14 0  70 14 0  72 14 0  74 14 0  76 14 0  78 14 0  80 14 0  82 14 0  84 14 0  86 14 0  88 14 0  90 14 0  92 14 0  94 14 0  96 14 0  98 14 0  100 14 0  102 14 0  104 14 0  106 14 0  108 14 0  110 14 0  112 14 0  114 14 0  116 14 0  118 14 0  120 14 0  122 14 0  124 14 0  126 14 0  128 14 0  130 14 0  132 14 0  134 14 0  136 14 0  138 14 0  140 14 0  142 14 0  144 14 0  146 14 0  148 14 0  150 14 0  152 14 0  154 14 0  156 14 0  158 14 0  160 14 0  162 14 0  164 14 0  166 14 0  168 14 0  170 14 0  172 14 0  174 14 0  176 14 0  178 14 0  180 14 0  182 14 0  184 14 0  186 14 0  188 14 0  190 14 0  192 14 0  194 14 0  196 14 0  198 14 0  200 14 0  0 16 0  2 16 0  4 16 0  6 16 0  8 16 0  10 16 0  12 16 0  14 16 0  16 16 0  18 16 0  20 16 0  22 16 0  24 16 0  26 16 0  28 16 0  30 16 0  32 16 0  34 16 0  36 16 0  38 16 0  40 16 0  42 16 0  44 16 0  46 16 0  48 16 0  50 16 0  52 16 0  54 16 0  56 16 0  58 16 0  60 16 0  62 16 0  64 16 0  66 16 0  68 16 0  70 16 0  72 16 0  74 16 0  76 16 0  78 16 0  80 16 0  82 16 0  84 16 0  86 16 0  88 16 0  90 16 0  92 16 0  94 16 0  96 16 0  98 16 0  100 16 0  102 16 0  104 16 0  106 16 0  108 16 0  110 16 0  112 16 0  114 16 0  116 16 0  118 16 0  120 16 0  122 16 0  124 16 0  126 16 0  128 16 0  130 16 0  132 16 0  134 16 0  136 16 0  138 16 0  140 16 0  142 16 0  144 16 0  146 16 0  148 16 0  150 16 0  152 16 0  154 16 0  156 16 0  158 16 0  160 16 0  162 16 0  164 16 0  166 16 0  168 16 0  170 16 0  172 16 0  174 16 0  176 16 0  178 16 0  180 16 0  182 16 0  184 16 0  186 16 0  188 16 0  190 16 0  192 16 0  194 16 0  196 16 0  198 16 0  200 16 0  0 18 0  2 18 0  4 18 0  6 18 0  8 18 0  10 18 0  12 18 0  14 18 0  16 18 0  18 18 0  20 18 0  22 18 0  24 18 0  26 18 0  28 18 0  30 18 0  32 18 0  34 18 0  36 18 0  38 18 0  40 18 0  42 18 0  44 18 0  46 18 0  48 18 0  50 18 0  52 18 0  54 18 0  56 18 0  58 18 0  60 18 0  62 18 0  64 18 0  66 18 0  68 18 0  70 18 0  72 18 0  74 18 0  76 18 0  78 18 0  80 18 0  82 18 0  84 18 0  86 18 0  88 18 0  90 18 0  92 18 0  94 18 0  96 18 0  98 18 0  100 18 0  102 18 0  104 18 0  106 18 0  108 18 0  110 18 0  112 18 0  114 18 0  116 18 0  118 18 0  120 18 0  122 18 0  124 18 0  126 18 0  128 18 0  130 18 0  132 18 0  134 18 0  136 18 0  138 18 0  140 18 0  142 18 0  144 18 0  146 18 0  148 18 0  150 18 0  152 18 0  154 18 0  156 18 0  158 18 0  160 18 0  162 18 0  164 18 0  166 18 0  168 18 0  170 18 0  172 18 0  174 18 0  176 18 0  178 18 0  180 18 0  182 18 0  184 18 0  186 18 0  188 18 0  190 18 0  192 18 0  194 18 0  196 18 0  198 18 0  200 18 0  0 20 0  2 20 0  4 20 0  6 20 0  8 20 0  10 20 0  12 20 0  14 20 0  16 20 0  18 20 0  20 20 0  22 20 0  24 20 0  26 20 0  28 20 0  30 20 0  32 20 0  34 20 0  36 20 0  38 20 0  40 20 0  42 20 0  44 20 0  46 20 0  48 20 0  50 20 0  52 20 0  54 20 0  56 20 0  58 20 0  60 20 0  62 20 0  64 20 0  66 20 0  68 20 0  70 20 0  72 20 0  74 20 0  76 20 0  78 20 0  80 20 0  82 20 0  84 20 0  86 20 0  88 20 0  90 20 0  92 20 0  94 20 0  96 20 0  98 20 0  100 20 0  102 20 0  104 20 0  106 20 0  108 20 0  110 20 0  112 20 0  114 20 0  116 20 0  118 20 0  120 20 0  122 20 0  124 20 0  126 20 0  128 20 0  130 20 0  132 20 0  134 20 0  136 20 0  138 20 0  140 20 0  142 20 0  144 20 0  146 20 0  148 20 0  150 20 0  152 20 0  154 20 0  156 20 0
[...]
<PointData  Scalars="f_271-2"> 
<DataArray  type="Float64"  Name="f_271-2"  format="ascii">5.9743563200910002e-05  5.6834298784116560e-05  4.8905427531546183e-05  3.8034421323234665e-05  2.6763338090281609e-05  1.7206735036098899e-05  1.0547780218064905e-05  7.0650704955754739e-06  6.4536399597473288e-06  8.1331836199594252e-06  1.1413258063619404e-05  1.5545685392706143e-05  1.9740010430712325e-05  2.3208539054542091e-05  2.5279295676272738e-05  2.5553685089266246e-05  2.4020696289229067e-05  2.1043635929373408e-05  1.7217893330752425e-05  1.3178671011401818e-05  9.4462469756665016e-06  6.3486760013664031e-06  4.0154071154700891e-06  2.4174275855083133e-06  1.4299897660357560e-06  8.9813280992807784e-07  6.8983738243063263e-07  7.2791074531137637e-07  9.9866289576408221e-07  1.5409463206958086e-06  2.4215189525410264e-06  3.7010631136346682e-06  5.3909144101501737e-06  7.4000250050490630e-06  9.4851886385127013e-06  1.1246123475291049e-05  1.2221886772953452e-05  1.2096381450915314e-05  1.0907210471951420e-05  9.0811655220976100e-06  7.2177554754739405e-06  5.7622279366268012e-06  4.8187838857873546e-06  4.2158240855222258e-06  3.7105310573304807e-06  3.1514573117578066e-06  2.5187431796624854e-06  1.8768316334992351e-06  1.3083428802843523e-06  8.7101109952457791e-07  5.8534501232285417e-07  4.4331734338680307e-07  4.2551659686201341e-07  5.1681659572601695e-07  7.1234144024075124e-07  1.0010952707651687e-06  1.2923636677180933e-06  1.2222482222191936e-06  4.8542706361817699e-07  6.5044163866342101e-08  7.9632646781796404e-09  2.1232888962848543e-08  2.3276909395604345e-07  4.0126010246124357e-07  7.0621601028806536e-08  3.3870368735003035e-09  4.8047622035342666e-10  1.2327042070489097e-09  2.0699336728320191e-08  4.0219767417407980e-07  2.8324004886699961e-06  5.4263467174587810e-06  5.4035831705903438e-06  4.1515392780227271e-06  2.7781699602738803e-06  1.7052410932781282e-06  1.0164951173804619e-06  6.4527892936497919e-07  4.8264158218444598e-07  4.4504831889733248e-07  5.1638451594039990e-07  7.6622162176869070e-07  1.3415655209703972e-06  2.4299145745710729e-06  4.1931310537251428e-06  6.6762221790938976e-06  9.7100348822770597e-06  1.2849588433898521e-05  1.5394635666750938e-05  1.6496467795980842e-05  1.5276305029525683e-05  1.0883041230415933e-05  3.9196159192217409e-06  2.9344862934334838e-07  -6.7974879500470228e-10  1.1160014089494287e-10  5.4198267192063398e-13  6.6233371790568052e-13  1.5271288551311745e-12  2.6997683733418375e-12  3.3147842618578839e-12  5.7175440815050824e-05  5.4434314223712480e-05  4.6949378084377507e-05  3.6649807134350893e-05  2.5916907441487228e-05  1.6757748965411401e-05  1.0321577101709997e-05  6.9067517211845356e-06  6.2506410353942318e-06  7.8165839933433276e-06  1.0950688479589428e-05  1.4933625257366589e-05  1.8999003075219328e-05  2.2381169939741656e-05  2.4426844481198179e-05  2.4746826021877759e-05  2.3324502974044571e-05  2.0502912299554384e-05  1.6849531077928390e-05  1.2973204984876203e-05  9.3759102291961483e-06  6.3775750539111090e-06  4.1084479292428020e-06  2.5462907935889552e-06  1.5757296760809561e-06  1.0508001045006296e-06  8.4599667336730285e-07  8.8707082367122034e-07  1.1595363041020449e-06  1.6982225431161592e-06  2.5635953827026243e-06  3.8091056947869849e-06  5.4399032764461778e-06  7.3629549978688828e-06  9.3414296281450505e-06  1.0992643705181349e-05  1.1881638059036152e-05  1.1715612604349231e-05  1.0538489095515090e-05  8.7605887937919029e-06  6.9522094692349937e-06  5.5355947655817045e-06  4.6102060159375789e-06  4.0149742700578936e-06  3.5210843102241187e-06  2.9850926628028465e-06  2.3870433699599431e-06  1.7863434493035433e-06  1.2598651367444909e-06  8.6160553519599389e-07  6.1106712519597656e-07  5.0124628678470471e-07  5.1447695575047432e-07  6.3689604985269246e-07  8.6400523702663511e-07  1.1861354649271761e-06  1.5245531326289978e-06  1.5554376829950209e-06  8.3365677753839433e-07  1.8804458764133642e-07  5.0393017337699617e-08  1.1118022166611300e-07  6.4135462836835310e-07  8.5440256964363263e-07  1.6238123027588534e-07  1.1928354139292591e-08  2.4490630098887126e-09  5.4121522550823843e-09  5.1165295490756086e-08  6.5477271936132212e-07  3.3957357937403454e-06  5.6595928883360066e-06  5.4597585416289627e-06  4.1939543855178904e-06  2.8407507040326297e-06  1.7825958777395261e-06  1.0959880518446805e-06  7.1780424313761191e-07  5.4517956726893103e-07  4.9929153805572877e-07  5.6529430641544669e-07  8.0982662826808888e-07  1.3732882698665549e-06  2.4346858366731058e-06  4.1485326262350768e-06  6.5577897323960486e-06  9.5009567836671450e-06  1.2552853167611906e-05  1.5043877716986634e-05  1.6164780224407187e-05  1.5095809911715273e-05  1.1100427602824631e-05  4.5488914903458842e-06  4.7200240935042038e-07  4.6696993525701866e-09  3.1959450799174528e-10  -3.8120696329944608e-12  1.5300949965587722e-12  1.5012402529035551e-12  2.7654515324197343e-12  3.3908735492828212e-12  5.0130693405165768e-05  4.7838186312355428e-05  4.1542542373792040e-05  3.2786058664323556e-05  2.3523790065184897e-05  1.5468899221293531e-05  9.6681790677594756e-06  6.4627673172443098e-06  5.6981456311549644e-06  6.9540693668567460e-06  9.6778252106004639e-06  1.3233390124230492e-05  1.6926080162383313e-05  2.0055682561058354e-05  2.2022997590263248e-05  2.2465343269231138e-05  2.1350455380698184e-05  1.8965172398498532e-05  1.5799550197357725e-05  1.2388825630014787e-05  9.1830381115392913e-06  6.4779584940228437e-06  4.4043627632949473e-06  2.9573308139425252e-06  2.0463592854930744e-06  1.5496374114245922e-06  1.3591815237499677e-06  1.4085652351069260e-06  1.6809704446051888e-06  2.2002551536300195e-06  3.0100735863815997e-06  4.1450840238636522e-06  5.5952920257425783e-06  7.2648002563449020e-06  8.9371087215367166e-06  1.0279878034076306e-05  1.0929665813947538e-05  1.0655864078581499e-05  9.5172206252383346e-06  7.8770972084003725e-06  6.2251486842242561e-06  4.9205828061359078e-06  4.0495945849097278e-06  3.4792239938712032e-06  3.0183153829406776e-06  2.5452712593455848e-06  2.0406075101202917e-06  1.5512570664517360e-06  1.1397919645724517e-06  8.5107005439662995e-07  7.0224355350049879e-07  6.8866145236734697e-07  7.9614769696374075e-07  1.0123558959308939e-06  1.3314816376421834e-06  1.7444995001241889e-06  2.1973824500541822e-06  2.4806042148258396e-06  2.1290198157721060e-06  1.2091890289402178e-06  7.7038313377490172e-07  1.1984644717562742e-06  2.5709621044243455e-06  2.6237974032252910e-06  8.6719887152892471e-07  1.4902478529636215e-07  5.3384470144371658e-08  8.1632255014673997e-08  3.6874546467850153e-07  1.9067934362345072e-06  4.8540828106339728e-06  6.1400304559591248e-06  5.5808382514814933e-06  4.3187596995416620e-06  3.0417061147093990e-06  2.0385081756171399e-06  1.3678570452687525e-06  9.7639116712795229e-07  7.7793192516715790e-07  7.0684788882975625e-07  7.5229574307351388e-07  9.7350872471583195e-07  1.4933357009719545e-06  2.4678249279429198e-06  4.0313220635348648e-06  6.2207781701926297e-06  8.8949999093227144e-06  1.1682563372120387e-05  1.3997895481071105e-05  1.5138241932582637e-05  1.4426734474668283e-05  1.1365392042956078e-05  6.0780043198299544e-06  1.3245458998634098e-06  7.5483358849679876e-08  2.7517816177472629e-09  1.5214278274555398e-10  1.0914099922475057e-11  3.6115100124930783e-12  3.7669164233595843e-12  4.3127652002966719e-12  4.0309811096344877e-05  3.8610130198984113e-05  3.3898322545162020e-05  2.7228362189488309e-05  2.0000001867011857e-05  1.3520800221641833e-05  8.6712012861639880e-06  5.8216421870440958e-06  4.9460569198494233e-06  5.7765643699592001e-06  7.9029326539363381e-06  1.0815569323720839e-05  1.3934607590616199e-05  1.6664848374146987e-05  1.8491284100264438e-05  1.9091807088865874e-05  1.8412855787556707e-05  1.6662017872241533e-05  1.4219245514020357e-05  1.1513380739054672e-05  8.9169217511875271e-06  6.6863296651092878e-06  4.9478938145765646e-06  3.7165532852501745e-06  2.9332192517960913e-06  2.5073315853419093e-06  2.3535258483648511e-06  2.4150390137403950e-06  2.6713122127821854e-06  3.1315185538843908e-06  3.8180022936600990e-06  4.7432770433840039e-06  5.8824540548255238e-06  7.1436404587842074e-06  8.3468235709389098e-06  9.2352410066476363e-06  9.5451782333597940e-06  9.1275436270026930e-06  8.0549452268197222e-06  6.6210008084528248e-06  5.2021582219244940e-06  4.0699469220002155e-06  3.2906211049240428e-06  2.7673303484279373e-06  2.3587973462783902e-06  1.9735945308669606e-06  1.5953030297571474e-06  1.2575885950371509e-06  1.0074309244089818e-06  8.8015401178430073e-07  8.9077047670652623e-07  1.0365085241595098e-06  1.3041248658126966e-06  1.6774380541713632e-06  2.1417114348570596e-06  2.6804106960178758e-06  3.2563838010555305e-06  3.7681354626879768e-06  4.0078730750279589e-06  3.8346139630385134e-06  3.7418252557612774e-06  4.4412447477796614e-06  5.4867320845017910e-06  5.3328403518465649e-06  3.3971828035241455e-06  1.5051524089706783e-06  8.6753565800439528e-07  1.0540322955272648e-06  2.2236970919934542e-06  4.5024592311220741e-06  6.2466614558804165e-06  6.4658632148948200e-06  5.6783579798191120e-06  4.5273422242145159e-06  3.4192682889390124e-06  2.5394067070595461e-06  1.9249499316611418e-06  1.5352081287279020e-06  1.3065924228972639e-06  1.1924142703380319e-06  1.1891193802948941e-06  1.3480154493363797e-06  1.7699439032265033e-06  2.5808766220692964e-06  3.8880209902827777e-06  5.7197713567987255e-06  7.9621008733406178e-06  1.0317352203628429e-05  1.2316825708168291e-05  1.3402554325249676e-05  1.3063144568195705e-05  1.0998059028884623e-05  7.3377017194088815e-06  3.1336188383432388e-06  6.2084217527119162e-07  5.8195970696853130e-08  4.2068215053836953e-09  2.3195137221638107e-10  -1.4197874208754699e-11  -1.0276235357214489e-11  -5.6237395159649721e-12  2.9778076292322159e-05  2.8666826737476719e-05  2.5544733728459536e-05  2.1015041157781503e-05  1.5940597275635454e-05  1.1204197806323463e-05  7.4761002368827463e-06  5.1126614559723860e-06  4.1894298651889564e-06  4.5836180659500307e-06  6.0369101918618374e-06  8.1883745009887310e-06  1.0602517286529757e-05  1.2818620968790097e-05  1.4428579587368621e-05  1.5163683785296367e-05  1.4952326535247870e-05  1.3918317084828015e-05  1.2321243779179529e-05  1.0469881341048291e-05  8.6446966745830865e-06  7.0497637498910316e-06  5.7963985466101836e-06  4.9115083668657257e-06  4.3613845284458291e-06  4.0817094320756372e-06  4.0054029769854835e-06  4.0820622741489766e-06  4.2859922544877328e-06  4.6131480088022440e-06  5.0695786576534619e-06  5.6545484480305519e-06  6.3410088502921574e-06  7.0568636914662974e-06  7.6751500005875517e-06  8.0279353176154634e-06  7.9568154167906331e-06  7.3905317467376162e-06  6.4054851925543386e-06  5.2143277501599963e-06  4.0713598855824467e-06  3.1538290374461428e-06  2.5026801361366570e-06  2.0532173537539858e-06  1.7127706375871777e-06  1.4222881149485329e-06  1.1736123061043714e-06  9.9388093559310677e-07  9.2103451986788575e-07  9.8566355084750269e-07  1.2023728170154568e-06  1.5678452845862588e-06  2.0625745899371606e-06  2.6550117859076071e-06  3.3074080395538057e-06  3.9809373289195315e-06  4.6356052955142976e-06  5.2231192279501351e-06  5.6875985196913159e-06  6.0178105975638017e-06  6.3389841853867048e-06  6.8007663072038987e-06  7.2133752198683039e-06  7.1060112118731067e-06  6.1948752785094938e-06  4.8651225763866019e-06  4.0580389344551776e-06  4.2554137232545180e-06  5.2533034889970290e-06  6.3047645632544746e-06  6.7200379342196202e-06  6.4347539165843840e-06  5.7099156236915395e-06  4.8401525019983632e-06  4.0311713911765680e-06  3.3797428215973812e-06  2.8990496088188158e-06  2.5567704140696005e-06  2.3101892200307805e-06  2.1331237005972857e-06  2.0334430613503512e-06  2.0599577495446063e-06  2.2968493327203820e-06  2.8442088139058610e-06  3.7847376848288368e-06  5.1398008852734824e-06  6.8242994458608002e-06  8.6182913380236820e-06  1.0177199409909577e-05  1.1093795141956215e-05  1.1005914815534991e-05  9.7282831313704969e-06  7.3824864872824176e-06  4.4875984850259009e-06  1.9379681703803388e-06  5.3393938067800054e-07  1.0205728348305206e-07  1.8194711590346745e-08  4.0388357806508240e-09  1.4817174876083269e-09  1.0707919754914437e-09  2.0268838682880766e-05  1.9637101803223222e-05  1.7829742053862742e-05  1.5121275451848821e-05  1.1956859540930499e-05  8.8535446863676493e-06  6.2616803667941915e-06  4.4740650894390807e-06  3.6127949302170090e-06  3.6590762831337049e-06  4.4845892003733484e-06  5.8723207825657882e-06  7.5383364240832111e-06  9.1690682372136783e-06  1.0476944634935069e-05  1.1260562233912885e-05  1.1445487144446983e-05  1.1087387351449382e-05  1.0338008563882252e-05  9.3918641060382510e-06  8.4352132125116090e-06  7.6106209498306980e-06  7.0002294559781216e-06  6.6252931824427000e-06  6.4579209064630025e-06  6.4404387650602072e-06  6.5071871032438918e-06  6.6033511241264302e-06  6.6963028674384303e-06  6.7771389949883423e-06  6.8530588855138588e-06  6.9336682914728041e-06  7.0153607348523700e-06  7.0683426175506202e-06  7.0321534202623873e-06  6.8269538496854290e-06  6.3844413502372409e-06  5.6894061368755148e-06  4.8067108024397576e-06  3.8673231538130998e-06  3.0127660946479449e-06  2.3325585738976549e-06  1.8377631773330220e-06  1.4835520582089946e-06  1.2156776911318057e-06  1.0061700602305459e-06  8.6265461252047963e-07  8.1758918574838523e-07  9.1118952801670061e-07  1.1770134372166236e-06  1.6318879772903607e-06  2.2686267856063115e-06  3.0516147736233987e-06  3.9183300986422703e-06  4.7896184222189182e-06  5.5868124628600681e-06  6.2486628057902746e-06  6.7414774972184978e-06  7.0634086202549429e-06  7.2484019953452579e-06  7.3584646139375835e-06  7.4361220775112134e-06  7.4426931855421240e-06  7.2720597475958529e-06  6.8682073397569300e-06  6.3460449216021427e-06  5.9736676185365684e-06  5.9448870194996716e-06  6.1629750966582687e-06  6.3569731882725396e-06  6.3398816699714574e-06  6.0930407730280829e-06  5.7084842802052185e-06  5.2995427443371622e-06  4.9426930192452968e-06  4.6600871721593219e-06  4.4309876726979312e-06  4.2160102814681571e-06  3.9817179387461894e-06  3.7188575194512532e-06  3.4519946725400274e-06  3.2401273042191088e-06  3.1678846885607944e-06  3.3271193115120151e-06  3.7902070768091464e-06  4.5789104088632223e-06  5.6358608401375030e-06  6.8092523664556533e-06  7.8629233049061588e-06  8.5197600421028347e-06  8.5354314056761262e-06  7.7863319863749545e-06  6.3441252967334215e-06  4.4980920957160562e-06  2.6812962188888468e-06  1.2974518831841392e-06  5.1258637495884383e-07  1.8306009222622036e-07  7.4078074981720504e-08  4.3596072404915748e-08  3.7503218902089915e-08  1.2803700628649194e-05  1.2499448134360741e-05  1.1608632575286397e-05  1.0219975743473470e-05  8.5171778984425811e-06  6.7547523545568554e-06  5.1889214984438599e-06  4.0154065007678972e-06  3.3443456287682418e-06  3.2036402022872230e-06  3.5502877475984731e-06  4.2809123045174597e-06  5.2454663003372353e-06  6.2705415183433596e-06  7.1924851960722776e-06  7.8920310428831654e-06  8.3178577220595457e-06  8.4900434307178945e-06  8.4837586956131618e-06  8.4017998617780582e-06  8.3462055203293700e-06  8.3952422750215238e-06  8.5877387843282770e-06  8.9154374506559164e-06  9.3247922159395293e-06  9.7296479655567491e-06  1.0033690823077545e-05  1.0156991965860807e-05  1.0057355446209137e-05  9.7381020878454359e-06  9.2399508346827304e-06  8.6219474198815095e-06  7.9401491005028744e-06  7.2318260707350593e-06  6.5098326475979047e-06  5.7688418633942215e-06  5.0016372241864879e-06  4.2181332489783390e-06  3.4548760746571053e-06  2.7653949045682892e-06  2.1947991386483061e-06  1.7562368451394588e-06  1.4274759596330062e-06  1.1702125755993391e-06  9.5752046183742097e-07  7.9165542168433406e-07  7.0483662573623520e-07  7.4761106178940373e-07  9.7377613096817721e-07  1.4272260271752307e-06  2.1299672257712569e-06  3.0686934137827877e-06  4.1826285078648534e-06  5.3623714207408715e-06  6.4683568189062088e-06  7.3660094704830842e-06  7.9624865157348840e-06  8.2284266556131016e-06  8.1979254351432984e-06  7.9506824969059602e-06  7.5831907074371985e-06  7.1759564726723062e-06  6.7703158602474985e-06  6.3726710854092220e-06  5.9873696945397455e-06  5.6492358313446180e-06  5.4168928102693867e-06  5.3247824975707814e-06  5.3475841527607249e-06  5.4241900102392153e-06  5.5117437258097535e-06  5.6113614755069961e-06  5.7517002096517331e-06  5.9545633538396223e-06  6.2081749141780730e-06  6.4610454647822013e-06  6.6365906171198800e-06  6.6598497028612498e-06  6.4841434869069943e-06  6.1081190111617897e-06  5.5798102856846206e-06  4.9889884701097212e-06  4.4499635036466173e-06  4.0770393435442409e-06  3.9568211864036056e-06  4.1237504466327000e-06  4.5447975594284049e-06  5.1171818720423180e-06  5.6818316204005368e-06  6.0543027858989790e-06  6.0710811048881118e-06  5.6419628752077412e-06  4.7912281523490051e-06  3.6656577267511345e-06  2.4928111310006695e-06  1.4955170864959728e-06  8.0325765415344067e-07  4.1639299561860992e-07  2.4578337635944953e-07  1.8858838763984590e-07  1.7692914357339053e-07  7.7048081911313224e-06  7.5797936421208846e-06  7.2089037565720498e-06  6.6181522657509163e-06  5.8753405000148039e-06  5.0852567618931340e-06  4.3602799009336132e-06  3.7905624968652603e-06  3.4302670244201146e-06  3.2976993046539859e-06  3.3802916891204010e-06  3.6404827621406749e-06  4.0243051667013950e-06  4.4742604129846890e-06  4.9440077025165239e-06  5.4098221669640451e-06  5.8749064412116712e-06  6.3659516897225497e-06  6.9243708511147268e-06  7.5955982606499909e-06  8.4181962952972924e-06  9.4117968492866945e-06  1.0562405369997057e-05  1.1807230435228650e-05  1.3027018582075981e-05  1.4056719375849900e-05  1.4719987169679599e-05  1.4879308970920593e-05  1.4480093558684868e-05  1.3566504139305726e-05  1.2262304803933596e-05  1.0729485044446516e-05  9.1258454804226404e-06  7.5769411270537307e-06  6.1663348480793212e-06  4.9398603549826335e-06  3.9166806361831054e-06  3.1000836267272501e-06  2.4826576364020997e-06  2.0443939975165046e-06  1.7481183463980878e-06  1.5405568838560044e-06  1.3646110566729646e-06  1.1797659061157819e-06  9.8012955198124118e-07  8.0000707540670669e-07  7.0465853323685470e-07  7.7255435704019907e-07  1.0783969914042089e-06  1.6809061847322539e-06  2.6101884747187451e-06  3.8474026247717614e-06  5.3016510322890236e-06  6.8046963897238648e-06  8.1416138376207365e-06  9.1113324222157202e-06  9.5877482161090751e-06  9.5514311928304855e-06  9.0817307862518554e-06  8.3202723141241123e-06  7.4252411921073148e-06  6.5325974155619822e-06  5.7338831588964543e-06  5.0741670724786529e-06  4.5661405664141985e-06  4.2088458496876002e-06  3.9990384178007486e-06  3.9330251371626561e-06  4.0074180542632066e-06  4.2252264819475178e-06  4.6019324267496365e-06  5.1607926602508114e-06  5.9139611237609059e-06  6.8369268080480924e-06  7.8496023954052651e-06  8.8167621083533925e-06  9.5734330024823884e-06  9.9684993370518587e-06  9.9090006552344755e-06  9.3872826159419151e-06  8.4835031810915200e-06  7.3466776995918694e-06  6.1608794160296017e-06  5.1035940122212217e-06  4.3063657373693509e-06  3.8297052710852286e-06  3.6584144401025942e-06  3.7138704796607491e-06  3.8756904776780025e-06  4.0081758415380564e-06  3.9902055063141609e-06  3.7455550452940048e-06  3.2656890235403003e-06  2.6143464740425129e-06  1.9070156174356713e-06  1.2693462704425499e-06  7.9163141236339258e-07  5.0149599851653602e-07  3.6711680453228209e-07  3.2549004757890366e-07  3.1920285890320012e-07  4.8298142886554045e-06  4.7624100389307822e-06  4.5802625388600318e-06  4.3357484235320543e-06  4.0937428691948716e-06  3.9087461261954446e-06  3.8087520802522681e-06  3.7917073074674008e-06  3.8331775374952730e-06  3.8982727889499165e-06  3.9519587892426960e-06  3.9678684966674042e-06  3.9386936435212878e-06  3.8868874086412209e-06  3.8685958990634099e-06  3.9651792738835962e-06  4.2650324448507576e-06  4.8448397904135201e-06  5.7581834430284632e-06  7.0330648872377705e-06  8.6732970638302385e-06  1.065483