<?xml version="1.0"?>
<VTKFile type="UnstructuredGrid"  version="0.1"  >
<UnstructuredGrid>
<Piece  NumberOfPoints="20201" NumberOfCells="40000">
<Points>
<DataArray  type="Float64"  NumberOfComponents="3"  format="ascii">0 0 0  2 0 0  4 0 0  6 0 0  8 0 0  10 0 0  12 0 0  14 0 0  16 0 0  18 0 0  20 0 0  22 0 0  24 0 0  26 0 0  28 0 0  30 0 0  32 0 0  34 0 0  36 0 0  38 0 0  40 0 0  42 0 0  44 0 0  46 0 0  48 0 0  50 0 0  52 0 0  54 0 0  56 0 0  58 0 0  60 0 0  62 0 0  64 0 0  66 0 0  68 0 0  70 0 0  72 0 0  74 0 0  76 0 0  78 0 0  80 0 0  82 0 0  84 0 0  86 0 0  88 0 0  90 0 0  92 0 0  94 0 0  96 0 0  98 0 0  100 0 0  102 0 0  104 0 0  106 0 0  108 0 0  110 0 0  112 0 0  114 0 0  116 0 0  118 0 0  120 0 0  122 0 0  124 0 0  126 0 0  128 0 0  130 0 0  132 0 0  134 0 0  136 0 0  138 0 0  140 0 0  142 0 0  144 0 0  146 0 0  148 0 0  150 0 0  152 0 0  154 0 0  156 0 0  158 0 0  160 0 0  162 0 0  164 0 0  166 0 0  168 0 0  170 0 0  172 0 0  174 0 0  176 0 0  178 0 0  180 0 0  182 0 0  184 0 0  186 0 0  188 0 0  190 0 0  192 0 0  194 0 0  196 0 0  198 0 0  200 0 0  0 2 0  2 2 0  4 2 0  6 2 0  8 2 0  10 2 0  12 2 0  14 2 0  16 2 0  18 2 0  20 2 0  22 2 0  24 2 0  26 2 0  28 2 0  30 2 0  32 2 0  34 2 0  36 2 0  38 2 0  40 2 0  42 2 0  44 2 0  46 2 0  48 2 0  50 2 0  52 2 0  54 2 0  56 2 0  58 2 0  60 2 0  62 2 0  64 2 0  66 2 0  68 2 0  70 2 0  72 2 0  74 2 0  76 2 0  78 2 0  80 2 0  82 2 0  84 2 0  86 2 0  88 2 0  90 2 0  92 2 0  94 2 0  96 2 0  98 2 0  100 2 0  102 2 0  104 2 0  106 2 0  108 2 0  110 2 0  112 2 0  114 2 0  116 2 0  118 2 0  120 2 0  122 2 0  124 2 0  126 2 0  128 2 0  130 2 0  132 2 0  134 2 0  136 2 0  138 2 0  140 2 0  142 2 0  144 2 0  146 2 0  148 2 0  150 2 0  152 2 0  154 2 0  156 2 0  158 2 0  160 2 0  162 2 0  164 2 0  166 2 0  168 2 0  170 2 0  172 2 0  174 2 0  176 2 0  178 2 0  180 2 0  182 2 0  184 2 0  186 2 0  188 2 0  190 2 0  192 2 0  194 2 0  196 2 0  198 2 0  200 2 0  0 4 0  2 4 0  4 4 0  6 4 0  8 4 0  10 4 0  12 4 0  14 4 0  16 4 0  18 4 0  20 4 0  22 4 0  24 4 0  26 4 0  28 4 0  30 4 0  32 4 0  34 4 0  36 4 0  38 4 0  40 4 0  42 4 0  44 4 0  46 4 0  48 4 0  50 4 0  52 4 0  54 4 0  56 4 0  58 4 0  60 4 0  62 4 0  64 4 0  66 4 0  68 4 0  70 4 0  72 4 0  74 4 0  76 4 0  78 4 0  80 4 0  82 4 0  84 4 0  86 4 0  88 4 0  90 4 0  92 4 0  94 4 0  96 4 0  98 4 0  100 4 0  102 4 0  104 4 0  106 4 0  108 4 0  110 4 0  112 4 0  114 4 0  116 4 0  118 4 0  120 4 0  122 4 0  124 4 0  126 4 0  128 4 0  130 4 0  132 4 0  134 4 0  136 4 0  138 4 0  140 4 0  142 4 0  144 4 0  146 4 0  148 4 0  150 4 0  152 4 0  154 4 0  156 4 0  158 4 0  160 4 0  162 4 0  164 4 0  166 4 0  168 4 0  170 4 0  172 4 0  174 4 0  176 4 0  178 4 0  180 4 0  182 4 0  184 4 0  186 4 0  188 4 0  190 4 0  192 4 0  194 4 0  196 4 0  198 4 0  200 4 0  0 6 0  2 6 0  4 6 0  6 6 0  8 6 0  10 6 0  12 6 0  14 6 0  16 6 0  18 6 0  20 6 0  22 6 0  24 6 0  26 6 0  28 6 0  30 6 0  32 6 0  34 6 0  36 6 0  38 6 0  40 6 0  42 6 0  44 6 0  46 6 0  48 6 0  50 6 0  52 6 0  54 6 0  56 6 0  58 6 0  60 6 0  62 6 0  64 6 0  66 6 0  68 6 0  70 6 0  72 6 0  74 6 0  76 6 0  78 6 0  80 6 0  82 6 0  84 6 0  86 6 0  88 6 0  90 6 0  92 6 0  94 6 0  96 6 0  98 6 0  100 6 0  102 6 0  104 6 0  106 6 0  108 6 0  110 6 0  112 6 0  114 6 0  116 6 0  118 6 0  120 6 0  122 6 0  124 6 0  126 6 0  128 6 0  130 6 0  132 6 0  134 6 0  136 6 0  138 6 0  140 6 0  142 6 0  144 6 0  146 6 0  148 6 0  150 6 0  152 6 0  154 6 0  156 6 0  158 6 0  160 6 0  162 6 0  164 6 0  166 6 0  168 6 0  170 6 0  172 6 0  174 6 0  176 6 0  178 6 0  180 6 0  182 6 0  184 6 0  186 6 0  188 6 0  190 6 0  192 6 0  194 6 0  196 6 0  198 6 0  200 6 0  0 8 0  2 8 0  4 8 0  6 8 0  8 8 0  10 8 0  12 8 0  14 8 0  16 8 0  18 8 0  20 8 0  22 8 0  24 8 0  26 8 0  28 8 0  30 8 0  32 8 0  34 8 0  36 8 0  38 8 0  40 8 0  42 8 0  44 8 0  46 8 0  48 8 0  50 8 0  52 8 0  54 8 0  56 8 0  58 8 0  60 8 0  62 8 0  64 8 0  66 8 0  68 8 0  70 8 0  72 8 0  74 8 0  76 8 0  78 8 0  80 8 0  82 8 0  84 8 0  86 8 0  88 8 0  90 8 0  92 8 0  94 8 0  96 8 0  98 8 0  100 8 0  102 8 0  104 8 0  106 8 0  108 8 0  110 8 0  112 8 0  114 8 0  116 8 0  118 8 0  120 8 0  122 8 0  124 8 0  126 8 0  128 8 0  130 8 0  132 8 0  134 8 0  136 8 0  138 8 0  140 8 0  142 8 0  144 8 0  146 8 0  148 8 0  150 8 0  152 8 0  154 8 0  156 8 0  158 8 0  160 8 0  162 8 0  164 8 0  166 8 0  168 8 0  170 8 0  172 8 0  174 8 0  176 8 0  178 8 0  180 8 0  182 8 0  184 8 0  186 8 0  188 8 0  190 8 0  192 8 0  194 8 0  196 8 0  198 8 0  200 8 0  0 10 0  2 10 0  4 10 0  6 10 0  8 10 0  10 10 0  12 10 0  14 10 0  16 10 0  18 10 0  20 10 0  22 10 0  24 10 0  26 10 0  28 10 0  30 10 0  32 10 0  34 10 0  36 10 0  38 10 0  40 10 0  42 10 0  44 10 0  46 10 0  48 10 0  50 10 0  52 10 0  54 10 0  56 10 0  58 10 0  60 10 0  62 10 0  64 10 0  66 10 0  68 10 0  70 10 0  72 10 0  74 10 0  76 10 0  78 10 0  80 10 0  82 10 0  84 10 0  86 10 0  88 10 0  90 10 0  92 10 0  94 10 0  96 10 0  98 10 0  100 10 0  102 10 0  104 10 0  106 10 0  108 10 0  110 10 0  112 10 0  114 10 0  116 10 0  118 10 0  120 10 0  122 10 0  124 10 0  126 10 0  128 10 0  130 10 0  132 10 0  134 10 0  136 10 0  138 10 0  140 10 0  142 10 0  144 10 0  146 10 0  148 10 0  150 10 0  152 10 0  154 10 0  156 10 0  158 10 0  160 10 0  162 10 0  164 10 0  166 10 0  168 10 0  170 10 0  172 10 0  174 10 0  176 10 0  178 10 0  180 10 0  182 10 0  184 10 0  186 10 0  188 10 0  190 10 0  192 10 0  194 10 0  196 10 0  198 10 0  200 10 0  0 12 0  2 12 0  4 12 0  6 12 0  8 12 0  10 12 0  12 12 0  14 12 0  16 12 0  18 12 0  20 12 0  22 12 0  24 12 0  26 12 0  28 12 0  30 12 0  32 12 0  34 12 0  36 12 0  38 12 0  40 12 0  42 12 0  44 12 0  46 12 0  48 12 0  50 12 0  52 12 0  54 12 0  56 12 0  58 12 0  60 12 0  62 12 0  64 12 0  66 12 0  68 12 0  70 12 0  72 12 0  74 12 0  76 12 0  78 12 0  80 12 0  82 12 0  84 12 0  86 12 0  88 12 0  90 12 0  92 12 0  94 12 0  96 12 0  98 12 0  100 12 0  102 12 0  104 12 0  106 12 0  108 12 0  110 12 0  112 12 0  114 12 0  116 12 0  118 12 0  120 12 0  122 12 0  124 12 0  126 12 0  128 12 0  130 12 0  132 12 0  134 12 0  136 12 0  138 12 0  140 12 0  142 12 0  144 12 0  146 12 0  148 12 0  150 12 0  152 12 0  154 12 0  156 12 0  158 12 0  160 12 0  162 12 0  164 12 0  166 12 0  168 12 0  170 12 0  172 12 0  174 12 0  176 12 0  178 12 0  180 12 0  182 12 0  184 12 0  186 12 0  188 12 0  190 12 0  192 12 0  194 12 0  196 12 0  198 12 0  200 12 0  0 14 0  2 14 0  4 14 0  6 14 0  8 14 0  10 14 0  12 14 0  14 14 0  16 14 0  18 14 0  20 14 0  22 14 0  24 14 0  26 14 0  28 14 0  30 14 0  32 14 0  34 14 0  36 14 0  38 14 0  40 14 0  42 14 0  44 14 0  46 14 0  48 14 0  50 14 0  52 14 0  54 14 0  56 14 0  58 14 0  60 14 0  62 14 0  64 14 0  66 14 0  68 14 0  70 14 0  72 14 0  74 14 0  76 14 0  78 14 0  80 14 0  82 14 0  84 14 0  86 14 0  88 14 0  90 14 0  92 14 0  94 14 0  96 14 0  98 14 0  100 14 0  102 14 0  104 14 0  106 14 0  108 14 0  110 14 0  112 14 0  114 14 0  116 14 0  118 14 0  120 14 0  122 14 0  124 14 0  126 14 0  128 14 0  130 14 0  132 14 0  134 14 0  136 14 0  138 14 0  140 14 0  142 14 0  144 14 0  146 14 0  148 14 0  150 14 0  152 14 0  154 14 0  156 14 0  158 14 0  160 14 0  162 14 0  164 14 0  166 14 0  168 14 0  170 14 0  172 14 0  174 14 0  176 14 0  178 14 0  180 14 0  182 14 0  184 14 0  186 14 0  188 14 0  190 14 0  192 14 0  194 14 0  196 14 0  198 14 0  200 14 0  0 16 0  2 16 0  4 16 0  6 16 0  8 16 0  10 16 0  12 16 0  14 16 0  16 16 0  18 16 0  20 16 0  22 16 0  24 16 0  26 16 0  28 16 0  30 16 0  32 16 0  34 16 0  36 16 0  38 16 0  40 16 0  42 16 0  44 16 0  46 16 0  48 16 0  50 16 0  52 16 0  54 16 0  56 16 0  58 16 0  60 16 0  62 16 0  64 16 0  66 16 0  68 16 0  70 16 0  72 16 0  74 16 0  76 16 0  78 16 0  80 16 0  82 16 0  84 16 0  86 16 0  88 16 0  90 16 0  92 16 0  94 16 0  96 16 0  98 16 0  100 16 0  102 16 0  104 16 0  106 16 0  108 16 0  110 16 0  112 16 0  114 16 0  116 16 0  118 16 0  120 16 0  122 16 0  124 16 0  126 16 0  128 16 0  130 16 0  132 16 0  134 16 0  136 16 0  138 16 0  140 16 0  142 16 0  144 16 0  146 16 0  148 16 0  150 16 0  152 16 0  154 16 0  156 16 0  158 16 0  160 16 0  162 16 0  164 16 0  166 16 0  168 16 0  170 16 0  172 16 0  174 16 0  176 16 0  178 16 0  180 16 0  182 16 0  184 16 0  186 16 0  188 16 0  190 16 0  192 16 0  194 16 0  196 16 0  198 16 0  200 16 0  0 18 0  2 18 0  4 18 0  6 18 0  8 18 0  10 18 0  12 18 0  14 18 0  16 18 0  18 18 0  20 18 0  22 18 0  24 18 0  26 18 0  28 18 0  30 18 0  32 18 0  34 18 0  36 18 0  38 18 0  40 18 0  42 18 0  44 18 0  46 18 0  48 18 0  50 18 0  52 18 0  54 18 0  56 18 0  58 18 0  60 18 0  62 18 0  64 18 0  66 18 0  68 18 0  70 18 0  72 18 0  74 18 0  76 18 0  78 18 0  80 18 0  82 18 0  84 18 0  86 18 0  88 18 0  90 18 0  92 18 0  94 18 0  96 18 0  98 18 0  100 18 0  102 18 0  104 18 0  106 18 0  108 18 0  110 18 0  112 18 0  114 18 0  116 18 0  118 18 0  120 18 0  122 18 0  124 18 0  126 18 0  128 18 0  130 18 0  132 18 0  134 18 0  136 18 0  138 18 0  140 18 0  142 18 0  144 18 0  146 18 0  148 18 0  150 18 0  152 18 0  154 18 0  156 18 0  158 18 0  160 18 0  162 18 0  164 18 0  166 18 0  168 18 0  170 18 0  172 18 0  174 18 0  176 18 0  178 18 0  180 18 0  182 18 0  184 18 0  186 18 0  188 18 0  190 18 0  192 18 0  194 18 0  196 18 0  198 18 0  200 18 0  0 20 0  2 20 0  4 20 0  6 20 0  8 20 0  10 20 0  12 20 0  14 20 0  16 20 0  18 20 0  20 20 0  22 20 0  24 20 0  26 20 0  28 20 0  30 20 0  32 20 0  34 20 0  36 20 0  38 20 0  40 20 0  42 20 0  44 20 0  46 20 0  48 20 0  50 20 0  52 20 0  54 20 0  56 20 0  58 20 0  60 20 0  62 20 0  64 20 0  66 20 0  68 20 0  70 20 0  72 20 0  74 20 0  76 20 0  78 20 0  80 20 0  82 20 0  84 20 0  86 20 0  88 20 0  90 20 0  92 20 0  94 20 0  96 20 0  98 20 0  100 20 0  102 20 0  104 20 0  106 20 0  108 20 0  110 20 0  112 20 0  114 20 0  116 20 0  118 20 0  120 20 0  122 20 0  124 20 0  126 20 0  128 20 0  130 20 0  132 20 0  134 20 0  136 20 0  138 20 0  140 20 0  142 20 0  144 20 0  146 20 0  148 20 0  150 20 0  152 20 0  154 20 0  156 20 0
[...]
<PointData  Scalars="f_271-2"> 
<DataArray  type="Float64"  Name="f_271-2"  format="ascii">1.9227572463736022e-14  1.8740717271767079e-14  1.7365425614137763e-14  1.5336874864690181e-14  1.2984978661943504e-14  1.0662049538436033e-14  8.6739797886623607e-15  7.2311939968913444e-15  6.4266018156216693e-15  6.2388529952198731e-15  6.5538191957983144e-15  7.1961055569282381e-15  7.9639325762420185e-15  8.6626972147715165e-15  9.1336122984029899e-15  9.2741489004059924e-15  9.0475316804856664e-15  8.4800652481625535e-15  7.6475473915902496e-15  6.6545690678329910e-15  5.6120107546973150e-15  4.6178986827030325e-15  3.7451481111596082e-15  3.0373487540678659e-15  2.5115200145016141e-15  2.1652944141240833e-15  1.9854815602674544e-15  1.9552983264581577e-15  2.0584417171686505e-15  2.2793387835577468e-15  2.6001084068733560e-15  2.9958426174404715e-15  3.4305713483784438e-15  3.8564410033671627e-15  4.2179067548897596e-15  4.4610010281177246e-15  4.5453972525661501e-15  4.4550545902582680e-15  4.2029409322763964e-15  3.8273127460646701e-15  3.3806017795564663e-15  2.9152755062335875e-15  2.4721952897032115e-15  2.0753502944449188e-15  1.7334817401354299e-15  1.4460446430606270e-15  1.2097144918351751e-15  1.0223708296567914e-15  8.8304154113711121e-16  7.8698810879035846e-16  7.1311890656082612e-16  5.9589858564878804e-16  3.2404498278169925e-16  5.3157492316680773e-17  2.6323039841641009e-18  1.4651771795143736e-19  3.7382850662477190e-21  1.6600968494270646e-22  2.9848073420456114e-23  -1.0056453267526549e-22  1.2603479641811040e-21  3.7009446950503923e-20  1.5210152800219421e-19  3.5563526229055547e-20  1.3587058041241192e-21  2.5452926645360018e-23  -3.2005345409525424e-24  3.6228202092424533e-25  2.6796002393211773e-24  7.6277600697788697e-24  -2.5268354058167527e-23  1.7976106060759011e-20  4.4670191185924283e-19  1.9680675230473311e-17  2.7371869362959900e-16  8.4554706751979838e-16  1.1411963640209256e-15  1.1845330587584757e-15  1.1615186976890492e-15  1.1742750361707914e-15  1.2757291199927623e-15  1.4971237897110811e-15  1.8564059269017485e-15  2.3539491882594089e-15  2.9604227594331344e-15  3.5998271272341177e-15  4.1276863399636364e-15  4.2972398762613511e-15  3.6989091163918111e-15  1.9267385223490677e-15  2.7399375534349336e-16  6.2676018840860800e-18  1.7940067752330072e-19  -5.2066513464217910e-21  2.8637319457796164e-22  -8.2197583345916943e-24  3.9107447968047329e-25  -3.1109557964822265e-26  1.1009971219167839e-26  1.3857550038063684e-27  2.1650084875754156e-27  1.8771477990117000e-14  1.8298209911719929e-14  1.6961084416582003e-14  1.4988193112228131e-14  1.2699715912254567e-14  1.0437923334017327e-14  8.5004574408732798e-15  7.0926187534374589e-15  6.3057234604469714e-15  6.1199880826839405e-15  6.4251763735173879e-15  7.0511088830403967e-15  7.8015723177024630e-15  8.4870364348654422e-15  8.9526292510418760e-15  9.0981427453413033e-15  8.8873668141634861e-15  8.3455494245898059e-15  7.5461995480812468e-15  6.5909290470663566e-15  5.5875039422572326e-15  4.6311420644879797e-15  3.7925116824671241e-15  3.1135828997643009e-15  2.6103119328902807e-15  2.2796939112121336e-15  2.1082067086968028e-15  2.0789745465860793e-15  2.1758398006500134e-15  2.3836657884179615e-15  2.6853802492147058e-15  3.0573337614428751e-15  3.4652953352567436e-15  3.8635682233349104e-15  4.1989873721495463e-15  4.4198587934340466e-15  4.4876200076299946e-15  4.3871292498970356e-15  4.1312221353713686e-15  3.7571034204400333e-15  3.3156016521817879e-15  2.8575181901847606e-15  2.4224105294188660e-15  2.0335481415876197e-15  1.6995220827005987e-15  1.4200251240471970e-15  1.1921262814571698e-15  1.0140723724916244e-15  8.8516019808380483e-16  8.0091061011490106e-16  7.4085018287859857e-16  6.4064527981300735e-16  3.7827461008396659e-16  7.3605700183177902e-17  4.4696309057092710e-18  2.7248578963398737e-19  1.3622786016676114e-20  5.9878106087389563e-22  6.5001395203550039e-23  8.5096764210717533e-22  5.3375198484396907e-21  2.0902099677664803e-19  8.1708122183631809e-19  1.8493622365094302e-19  6.1238033036489753e-21  -4.9827647728226313e-23  1.4420291780754251e-23  -7.5724292062293695e-25  2.3414034092031360e-24  5.8185530880021983e-23  2.1974341861591079e-22  3.4662163035436326e-20  7.2948503849752955e-19  2.7366666927650399e-17  3.3274805337575875e-16  9.3553759479882376e-16  1.2272535297221213e-15  1.2674906975637785e-15  1.2419752829649394e-15  1.2496688333535407e-15  1.3420415897901602e-15  1.5499989117636835e-15  1.8918024082592183e-15  2.3687151212765580e-15  2.9531367344928984e-15  3.5723068038425411e-15  4.0879670039258308e-15  4.2663677100681169e-15  3.7266715793868728e-15  2.0603523852533131e-15  3.4249058263990385e-16  1.0428475745981993e-17  2.7817277589751678e-19  -2.1478576430930436e-21  2.7175065176695287e-22  1.5321740070176347e-23  -2.4135511325670342e-24  3.1850946418096193e-25  -4.9802015167745836e-26  -7.7112848658518823e-27  -9.5695723074933483e-27  1.7471747982213157e-14  1.7037047144371565e-14  1.5808311253865166e-14  1.3993650552222715e-14  1.1885747895248744e-14  9.7984208946566177e-15  8.0058184444749909e-15  6.6985044368430152e-15  5.9630183128701843e-15  5.7837840189937657e-15  6.0614547921748199e-15  6.6406199092247298e-15  7.3409626715875782e-15  7.9875619472546958e-15  8.4369438979727153e-15  8.5958008598037484e-15  8.4298193195489920e-15  7.9614776527389698e-15  7.2579226623164369e-15  6.4123284259942094e-15  5.5235131452619294e-15  4.6784919365397599e-15  3.9412151524358745e-15  3.3486367309634458e-15  2.9132431279122341e-15  2.6297957193684244e-15  2.4835002184952015e-15  2.4570401629254715e-15  2.5346811665685329e-15  2.7027244636187080e-15  2.9467462350049050e-15  3.2471106634203426e-15  3.5749766361448961e-15  3.8911644839032071e-15  4.1495491371922688e-15  4.3050413792155875e-15  4.3241070023548892e-15  4.1940716708012031e-15  3.9272417587478616e-15  3.5576516002124334e-15  3.1313949087058268e-15  2.6943848617639716e-15  2.2823608339928531e-15  1.9164841808479604e-15  1.6049093852563638e-15  1.3480435241370616e-15  1.1441475385170824e-15  9.9259877678438110e-16  8.9353177358762129e-16  8.4324248374518402e-16  8.2306007721981612e-16  7.7347135930065092e-16  5.5683653285439332e-16  1.7076696539769071e-16  1.6287717009143433e-17  1.3102121623142392e-18  9.6913160782291331e-20  7.1397222521993006e-21  -9.5613977139867320e-22  -5.4715079992961558e-21  1.4577937143911156e-19  2.4272881218233107e-18  7.9676715427710680e-18  1.6401872451189971e-18  3.8568379849407985e-20  9.6213851413569777e-22  -6.2766962764847020e-23  1.2253335854815439e-23  4.2032779034929830e-23  1.4224429201250392e-22  6.0213981621667282e-21  1.4616424392240948e-19  2.6242129888608808e-18  6.5905106697562134e-17  5.4784487333437666e-16  1.2138129681388954e-15  1.4884761516302146e-15  1.5211777947582483e-15  1.4893933980894216e-15  1.4823362633264748e-15  1.5474170925354512e-15  1.7148109256706958e-15  2.0039574294069458e-15  2.4189296217977368e-15  2.9372441557338675e-15  3.4953018872180464e-15  3.9717672147647687e-15  4.1666112238006007e-15  3.7704298478779587e-15  2.4079517420210716e-15  6.0762602742905439e-16  3.4452493262100782e-17  1.0257355265330916e-18  2.3508510390786996e-20  2.5463064506084294e-21  -9.9317017550533731e-23  1.6811994264975032e-23  -1.3777807920036706e-24  1.7792352835196783e-26  -5.6169647867839089e-26  -3.8091739790320908e-26  1.5518014006195478e-14  1.5140835553294503e-14  1.4073927857392950e-14  1.2496005346645999e-14  1.0659151647184519e-14  8.8349167559426882e-15  7.2621936917808629e-15  6.1089866312009513e-15  5.4539294735886489e-15  5.2869683934616135e-15  5.5244835899374026e-15  6.0329503478422961e-15  6.6560316688397015e-15  7.2412283058362539e-15  7.6629501273745616e-15  7.8391707819808161e-15  7.7393491442653070e-15  7.3825925543624129e-15  6.8270243531715934e-15  6.1533296953205444e-15  5.4466686956601678e-15  4.7811006506046723e-15  4.2094679277691255e-15  3.7598817521730652e-15  3.4381711770620384e-15  3.2343653924570439e-15  3.1306793181315711e-15  3.1085523174050262e-15  3.1529194798236632e-15  3.2528895655821012e-15  3.3991518154634350e-15  3.5795023298616490e-15  3.7746131348821334e-15  3.9562962522498943e-15  4.0898332821965846e-15  4.1404563261126845e-15  4.0821819348484315e-15  3.9057312403999527e-15  3.6221186433747722e-15  3.2600505340650358e-15  2.8579661328532019e-15  2.4539796687322040e-15  2.0777645393215591e-15  1.7471342484462734e-15  1.4695640018765211e-15  1.2466548905543079e-15  1.0786840839616215e-15  9.6699251582707934e-16  9.1319586503314881e-16  9.1485250059920633e-16  9.5598563026382682e-16  9.8596331650222244e-16  8.7551442678237776e-16  4.6795642857949745e-16  9.1124972455600166e-17  9.2206582095655274e-18  1.3495611659045863e-18  2.3849595573499070e-19  9.5546875426414748e-20  2.4052645866209159e-19  2.1327683852279882e-18  3.0423958718799466e-17  6.1301841447834304e-17  1.1939230152613525e-17  3.8407748070747566e-19  6.8786036436422728e-21  1.4579303975610467e-21  5.1774606095104557e-23  3.5391068430687323e-22  5.9286749001809136e-21  5.2948530352466633e-20  1.0395235092004730e-18  1.4563638938756518e-17  2.1947278028751087e-16  1.0088117610586572e-15  1.6892422496400919e-15  1.9314136429867340e-15  1.9583594856860982e-15  1.9199765294691092e-15  1.8896692266125578e-15  1.9091449855936332e-15  2.0082353064696606e-15  2.2090707720795924e-15  2.5208626120128338e-15  2.9294721620857426e-15  3.3850110914695149e-15  3.7896448090997209e-15  3.9862172294640905e-15  3.7478198118070928e-15  2.7938608856886841e-15  1.1645741047138994e-15  1.4847474157698697e-16  6.1812470449951947e-18  4.1476716418584812e-19  1.1119598705444324e-20  1.8536428289271521e-21  6.7694093821916864e-23  3.1007843694425265e-23  1.0450287691525162e-23  5.9304233267510843e-24  4.7890921173761906e-24  1.3178182323061321e-14  1.2869094673305698e-14  1.1994060091317390e-14  1.0697761408096766e-14  9.1850134636399650e-15  7.6776842848672566e-15  6.3725699552815130e-15  5.4099121678223621e-15  4.8575194011863508e-15  4.7104156758779719e-15  4.9025478074876874e-15  5.3259323418066608e-15  5.8530389918157996e-15  6.3590559205577093e-15  6.7412424722586005e-15  6.9328707143191066e-15  6.9097751705830464e-15  6.6886644757445617e-15  6.3180156681940482e-15  5.8640345457845805e-15  5.3951842706028186e-15  4.9688000110659615e-15  4.6223966138235916e-15  4.3708322243609087e-15  4.2089795037031680e-15  4.1183359407036660e-15  4.0752816210324816e-15  4.0585565876785197e-15  4.0539825199563744e-15  4.0553958735576407e-15  4.0619736559186989e-15  4.0733036125469308e-15  4.0843342354572489e-15  4.0824515113073630e-15  4.0482316367631503e-15  3.9600208178519537e-15  3.8008267137677019e-15  3.5647783922785961e-15  3.2603254942064961e-15  2.9086506900110814e-15  2.5379399077965095e-15  2.1760618736153741e-15  1.8447784802809325e-15  1.5575490365369594e-15  1.3210021861642729e-15  1.1384147284617934e-15  1.0129208138666869e-15  9.4872474103752810e-16  9.4963927578869260e-16  1.0148936177640212e-15  1.1314532107216706e-15  1.2589899795712677e-15  1.2981207351264273e-15  1.0538929447620649e-15  4.8076770202708473e-16  1.0567251073249267e-16  1.7874828217904153e-17  4.1001354351213419e-18  2.0535375609889848e-18  6.2095512195642309e-18  5.4626751534561270e-17  2.4157680894622980e-16  2.9689657568046370e-16  7.8348185467208960e-17  4.1879616426947849e-18  2.9129749284484127e-19  1.4643898153691312e-20  5.0017621391473624e-21  1.3644971821319334e-20  9.0637830114636682e-20  9.1696895487162450e-19  8.0920202806671737e-18  1.0509614855199821e-16  7.2687154804488500e-16  1.7507349774326469e-15  2.3479981716989325e-15  2.5616240527904326e-15  2.5950777155265094e-15  2.5544839413425649e-15  2.4940406292736627e-15  2.4495859446060081e-15  2.4520723925227298e-15  2.5287481016267754e-15  2.6968967675294224e-15  2.9538389643617193e-15  3.2664012518777490e-15  3.5624792583547174e-15  3.7267004040650211e-15  3.6024040486467205e-15  3.0085622406421108e-15  1.8356803410779846e-15  5.4688961358085202e-16  5.7299934059798868e-17  3.6484978427912618e-18  3.4319524040271639e-19  2.3960625618430494e-20  1.8966499134147685e-21  -2.6869630214420905e-22  -2.5870601639538975e-22  -1.7479229123812010e-22  -1.4745797657785870e-22  1.0742383744461805e-14  1.0503078037314840e-14  9.8251470076055205e-15  8.8195429176124849e-15  7.6438466990900785e-15  6.4696006117220904e-15  5.4500008711050084e-15  4.6953239621424610e-15  4.2600964312543036e-15  4.1422828913495945e-15  4.2921009803457052e-15  4.6269951977173132e-15  5.0494106412927750e-15  5.4645324833731479e-15  5.7955826178296320e-15  5.9945852560819775e-15  6.0470395750387842e-15  5.9699092250237251e-15  5.8036624056769410e-15  5.6003792945171728e-15  5.4107437047578136e-15  5.2728133696216788e-15  5.2048608241537682e-15  5.2035204120777536e-15  5.2472284963656438e-15  5.3037340757987895e-15  5.3395094851683224e-15  5.3284466535137851e-15  5.2574783399827791e-15  5.1277320067788622e-15  4.9512547300759264e-15  4.7447736218704091e-15  4.5228773247607798e-15  4.2930889898986179e-15  4.0545063573768091e-15  3.8002694205021808e-15  3.5225842642186098e-15  3.2180004762738922e-15  2.8906082010414468e-15  2.5518804488848030e-15  2.2175575950875408e-15  1.9033790826251030e-15  1.6218412861704508e-15  1.3813387771328100e-15  1.1875866259244310e-15  1.0460060421097591e-15  9.6339811773633403e-16  9.4773443633275379e-16  1.0057575587884511e-15  1.1386606906738240e-15  1.3358669561866096e-15  1.5654319209377390e-15  1.7568531173241753e-15  1.7741218636422083e-15  1.4283250123997068e-15  7.8314820716677898e-16  3.1751205104428542e-16  1.5052842312123952e-16  1.2698287034819319e-16  2.1987098991792699e-16  5.2508831135189512e-16  8.8390512488300640e-16  8.4257795675397390e-16  3.7721007195711954e-16  5.5928108272276682e-17  3.9753596810126151e-18  5.9016828029391751e-19  2.2819188519735762e-19  4.0965708976419725e-19  1.7480373471593175e-18  1.0895548193344249e-17  9.4397713953672788e-17  5.9927934579824092e-16  1.7221316518636381e-15  2.6635471006670160e-15  3.1605681075599056e-15  3.3804781590779163e-15  3.4435737592315901e-15  3.4096302659241735e-15  3.3138271698352758e-15  3.1874920893722668e-15  3.0652389396412003e-15  2.9828054089700810e-15  2.9691430560048378e-15  3.0361405789505191e-15  3.1691462183505614e-15  3.3209764910813177e-15  3.4115516579156189e-15  3.3351426060753609e-15  2.9780845270004460e-15  2.2564761669581865e-15  1.2251131637369443e-15  3.5232125537350409e-16  4.8697623425700506e-17  4.7471972253046383e-18  5.6867539101684249e-19  8.7109580391342224e-20  2.1121339351127399e-20  7.9255835237503794e-21  4.3370462381304409e-21  3.5182686356377102e-21  8.4697534096377781e-15  8.2942458065105111e-15  7.7971197525952798e-15  7.0599894756306034e-15  6.1988734934844340e-15  5.3401733946113917e-15  4.5967605976292979e-15  4.0496489254648371e-15  3.7383803187349114e-15  3.6605307723352107e-15  3.7786831048701467e-15  4.0322409396989313e-15  4.3513678134207651e-15  4.6706442252623851e-15  4.9404015868944708e-15  5.1340830638102662e-15  5.2505480550731665e-15  5.3110713128101098e-15  5.3517834375746603e-15  5.4132042116655872e-15  5.5290950636322508e-15  5.7169937316142097e-15  5.9725046918948927e-15  6.2687443371276961e-15  6.5613058481674107e-15  6.7977984853919325e-15  6.9296950439476863e-15  6.9233523059410010e-15  6.7671205093238879e-15  6.4725921659740919e-15  6.0699230511192478e-15  5.5990624575378747e-15  5.0998996075861882e-15  4.6043567782987713e-15  4.1324260868711472e-15  3.6925402286744626e-15  3.2851281904841738e-15  2.9072972645324980e-15  2.5566050835353792e-15  2.2327613093580157e-15  1.9373632324404408e-15  1.6727621828760957e-15  1.4413740974288215e-15  1.2461465017651981e-15  1.0919171675014635e-15  9.8666443780575788e-16  9.4154326445227801e-16  9.6907950836555066e-16  1.0795925959061002e-15  1.2764177879701334e-15  1.5505284811659797e-15  1.8746258472896863e-15  2.1959732594514769e-15  2.4280650829299155e-15  2.4518032996884799e-15  2.1706758640665215e-15  1.6885006180348185e-15  1.3056061706869774e-15  1.1988665527250259e-15  1.3592955290422580e-15  1.6256379899456862e-15  1.7337975870393655e-15  1.5315620230399021e-15  1.0070240731482289e-15  3.9173517325716276e-16  8.9424048988674025e-17  2.1971999024877076e-17  1.1223403384588914e-17  1.5202013732716166e-17  4.3311478694189071e-17  1.7858907422183758e-16  7.0003689086603596e-16  1.7701496428978372e-15  2.8602379964528693e-15  3.6208908589087295e-15  4.1007899873432562e-15  4.3809683004775221e-15  4.5032758238259265e-15  4.4875928711258247e-15  4.3526943046645702e-15  4.1277761651638465e-15  3.8544136794601182e-15  3.5809040179903653e-15  3.3519528837838264e-15  3.1971369657650064e-15  3.1214098344936625e-15  3.1002256598515871e-15  3.0809556527551893e-15  2.9915057536342194e-15  2.7564676493204102e-15  2.3204458144291176e-15  1.6794965354552246e-15  9.3148308078105171e-16  3.3790300928770365e-16  7.7909266216931729e-17  1.4391283952979265e-17  2.6315355894138752e-18  5.0326566317121532e-19  9.8995658916420460e-20  1.7807459995422996e-20  3.9555907840287557e-21  6.5505805988820270e-15  6.4275155854350370e-15  6.0797299595218729e-15  5.5665221348344102e-15  4.9717404901502351e-15  4.3858469882183590e-15  3.8881813034801930e-15  3.5336097716968066e-15  3.3459788697553492e-15  3.3187102432795987e-15  3.4212284372874435e-15  3.6090424002048123e-15  3.8351135109770274e-15  4.0603521259248457e-15  4.2614788086887832e-15  4.4350098488527630e-15  4.5967888147075169e-15  4.7772382576364542e-15  5.0132203469874181e-15  5.3379486563687827e-15  5.7707504489815948e-15  6.3086742041576709e-15  6.9219564388833122e-15  7.5550433045184761e-15  8.1339602269515678e-15  8.5792550860099398e-15  8.8218509598763636e-15  8.8177119410840833e-15  8.5570909328897097e-15  8.0656316006998851e-15  7.3972423006484025e-15  6.6213165992779658e-15  5.8084072612430173e-15  5.0183458775540815e-15  4.2933237244220634e-15  3.6564225014196569e-15  3.1143653872881094e-15  2.6623946925071773e-15  2.2892813614295510e-15  1.9812650323231063e-15  1.7247188958009403e-15  1.5080275792923488e-15  1.3232718446224078e-15  1.1678983665456089e-15  1.0459769773445637e-15  9.6832153728058745e-16  9.5087357470521940e-16  1.0112223607113221e-15  1.1636927443079515e-15  1.4138342195127596e-15  1.7532850676055674e-15  2.1558775456459263e-15  2.5756804124999026e-15  2.9481556710469685e-15  3.1982123036694890e-15  3.2647086778045954e-15  3.1465627923954143e-15  2.9389961162518242e-15  2.7694297703461452e-15  2.6712908144751704e-15  2.5719417504403400e-15  2.3863116240609293e-15  2.0686005117677115e-15  1.6111984305814277e-15  1.0617609211021187e-15  5.7546155551404090e-16  3.0105357252992483e-16  2.1728677446105500e-16  2.6654628104273542e-16  4.9719611844365285e-16  1.0506901048480600e-15  1.9505733012981553e-15  2.9592150712026678e-15  3.8528271866493532e-15  4.5807762358696104e-15  5.1448920665302335e-15  5.5401035808734366e-15  5.7508707787090080e-15  5.7653189399270009e-15  5.5889643248643909e-15  5.2515128507930422e-15  4.8050070926588794e-15  4.3145458527871440e-15  3.8447217144512419e-15  3.4457256926494778e-15  3.1427475018764225e-15  2.9311703605231613e-15  2.7786326869214927e-15  2.6337505148504913e-15  2.4402644771725804e-15  2.1542958696381517e-15  1.7609291560907745e-15  1.2856072672179184e-15  7.9730265936908766e-16  4.0017352242780435e-16  1.6241100065036891e-16  5.9463232515794826e-17  2.3841445911771195e-17  1.1944113157233274e-17  7.8124142025968318e-18  6.7711515346653966e-18  5.0892424366186426e-15  5.0045770718292386e-15  4.7669512062058477e-15  4.4213724044017435e-15  4.0304558274112350e-15  3.6598068737078202e-15  3.3639609505741110e-15  3.1764172233746844e-15  3.1057224248377899e-15  3.1377381883573371e-15  3.2427775339123571e-15  3.3854878178900327e-15  3.5351377869544771e-15  3.6741690254216403e-15  3.8033734049810250e-15  3.9427812978014173e-15  4.1281739788271021e-15  4.4038814760198061e-15  4.8130297236854596e-15  5.3866482453089609e-15  6.13320943772