<?xml version="1.0"?>
<VTKFile type="UnstructuredGrid"  version="0.1"  >
<UnstructuredGrid>
<Piece  NumberOfPoints="20201" NumberOfCells="40000">
<Points>
<DataArray  type="Float64"  NumberOfComponents="3"  format="ascii">0 0 0  2 0 0  4 0 0  6 0 0  8 0 0  10 0 0  12 0 0  14 0 0  16 0 0  18 0 0  20 0 0  22 0 0  24 0 0  26 0 0  28 0 0  30 0 0  32 0 0  34 0 0  36 0 0  38 0 0  40 0 0  42 0 0  44 0 0  46 0 0  48 0 0  50 0 0  52 0 0  54 0 0  56 0 0  58 0 0  60 0 0  62 0 0  64 0 0  66 0 0  68 0 0  70 0 0  72 0 0  74 0 0  76 0 0  78 0 0  80 0 0  82 0 0  84 0 0  86 0 0  88 0 0  90 0 0  92 0 0  94 0 0  96 0 0  98 0 0  100 0 0  102 0 0  104 0 0  106 0 0  108 0 0  110 0 0  112 0 0  114 0 0  116 0 0  118 0 0  120 0 0  122 0 0  124 0 0  126 0 0  128 0 0  130 0 0  132 0 0  134 0 0  136 0 0  138 0 0  140 0 0  142 0 0  144 0 0  146 0 0  148 0 0  150 0 0  152 0 0  154 0 0  156 0 0  158 0 0  160 0 0  162 0 0  164 0 0  166 0 0  168 0 0  170 0 0  172 0 0  174 0 0  176 0 0  178 0 0  180 0 0  182 0 0  184 0 0  186 0 0  188 0 0  190 0 0  192 0 0  194 0 0  196 0 0  198 0 0  200 0 0  0 2 0  2 2 0  4 2 0  6 2 0  8 2 0  10 2 0  12 2 0  14 2 0  16 2 0  18 2 0  20 2 0  22 2 0  24 2 0  26 2 0  28 2 0  30 2 0  32 2 0  34 2 0  36 2 0  38 2 0  40 2 0  42 2 0  44 2 0  46 2 0  48 2 0  50 2 0  52 2 0  54 2 0  56 2 0  58 2 0  60 2 0  62 2 0  64 2 0  66 2 0  68 2 0  70 2 0  72 2 0  74 2 0  76 2 0  78 2 0  80 2 0  82 2 0  84 2 0  86 2 0  88 2 0  90 2 0  92 2 0  94 2 0  96 2 0  98 2 0  100 2 0  102 2 0  104 2 0  106 2 0  108 2 0  110 2 0  112 2 0  114 2 0  116 2 0  118 2 0  120 2 0  122 2 0  124 2 0  126 2 0  128 2 0  130 2 0  132 2 0  134 2 0  136 2 0  138 2 0  140 2 0  142 2 0  144 2 0  146 2 0  148 2 0  150 2 0  152 2 0  154 2 0  156 2 0  158 2 0  160 2 0  162 2 0  164 2 0  166 2 0  168 2 0  170 2 0  172 2 0  174 2 0  176 2 0  178 2 0  180 2 0  182 2 0  184 2 0  186 2 0  188 2 0  190 2 0  192 2 0  194 2 0  196 2 0  198 2 0  200 2 0  0 4 0  2 4 0  4 4 0  6 4 0  8 4 0  10 4 0  12 4 0  14 4 0  16 4 0  18 4 0  20 4 0  22 4 0  24 4 0  26 4 0  28 4 0  30 4 0  32 4 0  34 4 0  36 4 0  38 4 0  40 4 0  42 4 0  44 4 0  46 4 0  48 4 0  50 4 0  52 4 0  54 4 0  56 4 0  58 4 0  60 4 0  62 4 0  64 4 0  66 4 0  68 4 0  70 4 0  72 4 0  74 4 0  76 4 0  78 4 0  80 4 0  82 4 0  84 4 0  86 4 0  88 4 0  90 4 0  92 4 0  94 4 0  96 4 0  98 4 0  100 4 0  102 4 0  104 4 0  106 4 0  108 4 0  110 4 0  112 4 0  114 4 0  116 4 0  118 4 0  120 4 0  122 4 0  124 4 0  126 4 0  128 4 0  130 4 0  132 4 0  134 4 0  136 4 0  138 4 0  140 4 0  142 4 0  144 4 0  146 4 0  148 4 0  150 4 0  152 4 0  154 4 0  156 4 0  158 4 0  160 4 0  162 4 0  164 4 0  166 4 0  168 4 0  170 4 0  172 4 0  174 4 0  176 4 0  178 4 0  180 4 0  182 4 0  184 4 0  186 4 0  188 4 0  190 4 0  192 4 0  194 4 0  196 4 0  198 4 0  200 4 0  0 6 0  2 6 0  4 6 0  6 6 0  8 6 0  10 6 0  12 6 0  14 6 0  16 6 0  18 6 0  20 6 0  22 6 0  24 6 0  26 6 0  28 6 0  30 6 0  32 6 0  34 6 0  36 6 0  38 6 0  40 6 0  42 6 0  44 6 0  46 6 0  48 6 0  50 6 0  52 6 0  54 6 0  56 6 0  58 6 0  60 6 0  62 6 0  64 6 0  66 6 0  68 6 0  70 6 0  72 6 0  74 6 0  76 6 0  78 6 0  80 6 0  82 6 0  84 6 0  86 6 0  88 6 0  90 6 0  92 6 0  94 6 0  96 6 0  98 6 0  100 6 0  102 6 0  104 6 0  106 6 0  108 6 0  110 6 0  112 6 0  114 6 0  116 6 0  118 6 0  120 6 0  122 6 0  124 6 0  126 6 0  128 6 0  130 6 0  132 6 0  134 6 0  136 6 0  138 6 0  140 6 0  142 6 0  144 6 0  146 6 0  148 6 0  150 6 0  152 6 0  154 6 0  156 6 0  158 6 0  160 6 0  162 6 0  164 6 0  166 6 0  168 6 0  170 6 0  172 6 0  174 6 0  176 6 0  178 6 0  180 6 0  182 6 0  184 6 0  186 6 0  188 6 0  190 6 0  192 6 0  194 6 0  196 6 0  198 6 0  200 6 0  0 8 0  2 8 0  4 8 0  6 8 0  8 8 0  10 8 0  12 8 0  14 8 0  16 8 0  18 8 0  20 8 0  22 8 0  24 8 0  26 8 0  28 8 0  30 8 0  32 8 0  34 8 0  36 8 0  38 8 0  40 8 0  42 8 0  44 8 0  46 8 0  48 8 0  50 8 0  52 8 0  54 8 0  56 8 0  58 8 0  60 8 0  62 8 0  64 8 0  66 8 0  68 8 0  70 8 0  72 8 0  74 8 0  76 8 0  78 8 0  80 8 0  82 8 0  84 8 0  86 8 0  88 8 0  90 8 0  92 8 0  94 8 0  96 8 0  98 8 0  100 8 0  102 8 0  104 8 0  106 8 0  108 8 0  110 8 0  112 8 0  114 8 0  116 8 0  118 8 0  120 8 0  122 8 0  124 8 0  126 8 0  128 8 0  130 8 0  132 8 0  134 8 0  136 8 0  138 8 0  140 8 0  142 8 0  144 8 0  146 8 0  148 8 0  150 8 0  152 8 0  154 8 0  156 8 0  158 8 0  160 8 0  162 8 0  164 8 0  166 8 0  168 8 0  170 8 0  172 8 0  174 8 0  176 8 0  178 8 0  180 8 0  182 8 0  184 8 0  186 8 0  188 8 0  190 8 0  192 8 0  194 8 0  196 8 0  198 8 0  200 8 0  0 10 0  2 10 0  4 10 0  6 10 0  8 10 0  10 10 0  12 10 0  14 10 0  16 10 0  18 10 0  20 10 0  22 10 0  24 10 0  26 10 0  28 10 0  30 10 0  32 10 0  34 10 0  36 10 0  38 10 0  40 10 0  42 10 0  44 10 0  46 10 0  48 10 0  50 10 0  52 10 0  54 10 0  56 10 0  58 10 0  60 10 0  62 10 0  64 10 0  66 10 0  68 10 0  70 10 0  72 10 0  74 10 0  76 10 0  78 10 0  80 10 0  82 10 0  84 10 0  86 10 0  88 10 0  90 10 0  92 10 0  94 10 0  96 10 0  98 10 0  100 10 0  102 10 0  104 10 0  106 10 0  108 10 0  110 10 0  112 10 0  114 10 0  116 10 0  118 10 0  120 10 0  122 10 0  124 10 0  126 10 0  128 10 0  130 10 0  132 10 0  134 10 0  136 10 0  138 10 0  140 10 0  142 10 0  144 10 0  146 10 0  148 10 0  150 10 0  152 10 0  154 10 0  156 10 0  158 10 0  160 10 0  162 10 0  164 10 0  166 10 0  168 10 0  170 10 0  172 10 0  174 10 0  176 10 0  178 10 0  180 10 0  182 10 0  184 10 0  186 10 0  188 10 0  190 10 0  192 10 0  194 10 0  196 10 0  198 10 0  200 10 0  0 12 0  2 12 0  4 12 0  6 12 0  8 12 0  10 12 0  12 12 0  14 12 0  16 12 0  18 12 0  20 12 0  22 12 0  24 12 0  26 12 0  28 12 0  30 12 0  32 12 0  34 12 0  36 12 0  38 12 0  40 12 0  42 12 0  44 12 0  46 12 0  48 12 0  50 12 0  52 12 0  54 12 0  56 12 0  58 12 0  60 12 0  62 12 0  64 12 0  66 12 0  68 12 0  70 12 0  72 12 0  74 12 0  76 12 0  78 12 0  80 12 0  82 12 0  84 12 0  86 12 0  88 12 0  90 12 0  92 12 0  94 12 0  96 12 0  98 12 0  100 12 0  102 12 0  104 12 0  106 12 0  108 12 0  110 12 0  112 12 0  114 12 0  116 12 0  118 12 0  120 12 0  122 12 0  124 12 0  126 12 0  128 12 0  130 12 0  132 12 0  134 12 0  136 12 0  138 12 0  140 12 0  142 12 0  144 12 0  146 12 0  148 12 0  150 12 0  152 12 0  154 12 0  156 12 0  158 12 0  160 12 0  162 12 0  164 12 0  166 12 0  168 12 0  170 12 0  172 12 0  174 12 0  176 12 0  178 12 0  180 12 0  182 12 0  184 12 0  186 12 0  188 12 0  190 12 0  192 12 0  194 12 0  196 12 0  198 12 0  200 12 0  0 14 0  2 14 0  4 14 0  6 14 0  8 14 0  10 14 0  12 14 0  14 14 0  16 14 0  18 14 0  20 14 0  22 14 0  24 14 0  26 14 0  28 14 0  30 14 0  32 14 0  34 14 0  36 14 0  38 14 0  40 14 0  42 14 0  44 14 0  46 14 0  48 14 0  50 14 0  52 14 0  54 14 0  56 14 0  58 14 0  60 14 0  62 14 0  64 14 0  66 14 0  68 14 0  70 14 0  72 14 0  74 14 0  76 14 0  78 14 0  80 14 0  82 14 0  84 14 0  86 14 0  88 14 0  90 14 0  92 14 0  94 14 0  96 14 0  98 14 0  100 14 0  102 14 0  104 14 0  106 14 0  108 14 0  110 14 0  112 14 0  114 14 0  116 14 0  118 14 0  120 14 0  122 14 0  124 14 0  126 14 0  128 14 0  130 14 0  132 14 0  134 14 0  136 14 0  138 14 0  140 14 0  142 14 0  144 14 0  146 14 0  148 14 0  150 14 0  152 14 0  154 14 0  156 14 0  158 14 0  160 14 0  162 14 0  164 14 0  166 14 0  168 14 0  170 14 0  172 14 0  174 14 0  176 14 0  178 14 0  180 14 0  182 14 0  184 14 0  186 14 0  188 14 0  190 14 0  192 14 0  194 14 0  196 14 0  198 14 0  200 14 0  0 16 0  2 16 0  4 16 0  6 16 0  8 16 0  10 16 0  12 16 0  14 16 0  16 16 0  18 16 0  20 16 0  22 16 0  24 16 0  26 16 0  28 16 0  30 16 0  32 16 0  34 16 0  36 16 0  38 16 0  40 16 0  42 16 0  44 16 0  46 16 0  48 16 0  50 16 0  52 16 0  54 16 0  56 16 0  58 16 0  60 16 0  62 16 0  64 16 0  66 16 0  68 16 0  70 16 0  72 16 0  74 16 0  76 16 0  78 16 0  80 16 0  82 16 0  84 16 0  86 16 0  88 16 0  90 16 0  92 16 0  94 16 0  96 16 0  98 16 0  100 16 0  102 16 0  104 16 0  106 16 0  108 16 0  110 16 0  112 16 0  114 16 0  116 16 0  118 16 0  120 16 0  122 16 0  124 16 0  126 16 0  128 16 0  130 16 0  132 16 0  134 16 0  136 16 0  138 16 0  140 16 0  142 16 0  144 16 0  146 16 0  148 16 0  150 16 0  152 16 0  154 16 0  156 16 0  158 16 0  160 16 0  162 16 0  164 16 0  166 16 0  168 16 0  170 16 0  172 16 0  174 16 0  176 16 0  178 16 0  180 16 0  182 16 0  184 16 0  186 16 0  188 16 0  190 16 0  192 16 0  194 16 0  196 16 0  198 16 0  200 16 0  0 18 0  2 18 0  4 18 0  6 18 0  8 18 0  10 18 0  12 18 0  14 18 0  16 18 0  18 18 0  20 18 0  22 18 0  24 18 0  26 18 0  28 18 0  30 18 0  32 18 0  34 18 0  36 18 0  38 18 0  40 18 0  42 18 0  44 18 0  46 18 0  48 18 0  50 18 0  52 18 0  54 18 0  56 18 0  58 18 0  60 18 0  62 18 0  64 18 0  66 18 0  68 18 0  70 18 0  72 18 0  74 18 0  76 18 0  78 18 0  80 18 0  82 18 0  84 18 0  86 18 0  88 18 0  90 18 0  92 18 0  94 18 0  96 18 0  98 18 0  100 18 0  102 18 0  104 18 0  106 18 0  108 18 0  110 18 0  112 18 0  114 18 0  116 18 0  118 18 0  120 18 0  122 18 0  124 18 0  126 18 0  128 18 0  130 18 0  132 18 0  134 18 0  136 18 0  138 18 0  140 18 0  142 18 0  144 18 0  146 18 0  148 18 0  150 18 0  152 18 0  154 18 0  156 18 0  158 18 0  160 18 0  162 18 0  164 18 0  166 18 0  168 18 0  170 18 0  172 18 0  174 18 0  176 18 0  178 18 0  180 18 0  182 18 0  184 18 0  186 18 0  188 18 0  190 18 0  192 18 0  194 18 0  196 18 0  198 18 0  200 18 0  0 20 0  2 20 0  4 20 0  6 20 0  8 20 0  10 20 0  12 20 0  14 20 0  16 20 0  18 20 0  20 20 0  22 20 0  24 20 0  26 20 0  28 20 0  30 20 0  32 20 0  34 20 0  36 20 0  38 20 0  40 20 0  42 20 0  44 20 0  46 20 0  48 20 0  50 20 0  52 20 0  54 20 0  56 20 0  58 20 0  60 20 0  62 20 0  64 20 0  66 20 0  68 20 0  70 20 0  72 20 0  74 20 0  76 20 0  78 20 0  80 20 0  82 20 0  84 20 0  86 20 0  88 20 0  90 20 0  92 20 0  94 20 0  96 20 0  98 20 0  100 20 0  102 20 0  104 20 0  106 20 0  108 20 0  110 20 0  112 20 0  114 20 0  116 20 0  118 20 0  120 20 0  122 20 0  124 20 0  126 20 0  128 20 0  130 20 0  132 20 0  134 20 0  136 20 0  138 20 0  140 20 0  142 20 0  144 20 0  146 20 0  148 20 0  150 20 0  152 20 0  154 20 0  156 20 0
[...]
<PointData  Scalars="f_271-2"> 
<DataArray  type="Float64"  Name="f_271-2"  format="ascii">1.8890889958655701e-08  1.8181462690020499e-08  1.6213035517752756e-08  1.3412029129668890e-08  1.0336149677128099e-08  7.5164376352835146e-09  5.3387616642982660e-09  3.9966720537455357e-09  3.5071318221087720e-09  3.7572767206104315e-09  4.5529012526780570e-09  5.6562431139453015e-09  6.8156810130376491e-09  7.7950219550760542e-09  8.4057053205618601e-09  8.5367899931295055e-09  8.1719191761303413e-09  7.3844923939829624e-09  6.3111621266592708e-09  5.1132493955682567e-09  3.9394936342490798e-09  2.9004912783309072e-09  2.0587085658167941e-09  1.4322284445292847e-09  1.0073246783617946e-09  7.5432389614183424e-10  6.4207835312378494e-10  6.4793900257482913e-10  7.6182907955805537e-10  9.8443859647998205e-10  1.3204494913277363e-09  1.7681968749419085e-09  2.3078534373407356e-09  2.8917234837517449e-09  3.4422352522350718e-09  3.8635545648081999e-09  4.0682853443559692e-09  4.0110282773321181e-09  3.7113901199538901e-09  3.2499246410565084e-09  2.7352619273383334e-09  2.2600466400549701e-09  1.8709635368327229e-09  1.5670041291407708e-09  1.3202823037845691e-09  1.1017484270210576e-09  8.9692543013628538e-10  7.0776873821382620e-10  5.4568430028152776e-10  4.2299011681450169e-10  3.4744836361235720e-10  3.2059349224864450e-10  3.3721275768878257e-10  3.7879429770331340e-10  3.8315326198716810e-10  2.2999271505407701e-10  4.8757513413268055e-11  5.1415069522176464e-12  4.4683846368139008e-13  6.7152172948543351e-14  2.1140656226179359e-14  6.2065802900180113e-13  4.7414238604455924e-12  3.1068820562483723e-12  3.2921137107720253e-13  1.4383800721061821e-14  7.6986758291524116e-16  3.3910728998548547e-15  3.8048797855875417e-14  4.6002296953189327e-13  7.7448220959276126e-12  1.0726181069605996e-10  6.4497794066811244e-10  1.1827064784556000e-09  1.1563694448006380e-09  9.0617669068794761e-10  6.6030878660470085e-10  4.8504159572734558e-10  3.8738702354474045e-10  3.6238571005088044e-10  4.1429786699127546e-10  5.6396593552722151e-10  8.4587010987835541e-10  1.2961768027705868e-09  1.9336192302096430e-09  2.7370499669571407e-09  3.6257440936301394e-09  4.4484172019047730e-09  4.9800323407703925e-09  4.9050777501131235e-09  3.7512782230203191e-09  1.4305623004402968e-09  1.2640579181337072e-10  1.8154109312177369e-12  4.4942957296879307e-14  4.3282116828422993e-16  -1.4974444655185810e-18  7.0801108542429762e-19  1.5159128999759753e-18  6.8717476482265682e-19  8.3400233454309451e-19  1.8256796353309930e-08  1.7576899222541453e-08  1.5689117594280232e-08  1.2999250908382260e-08  1.0039553802913108e-08  7.3191422733041279e-09  5.2106645328365111e-09  3.9039584397204129e-09  3.4194957852051947e-09  3.6519417885471243e-09  4.4160766353634916e-09  5.4830890485480057e-09  6.6095290550793130e-09  7.5660546055591804e-09  8.1689637173671270e-09  8.3094504868076437e-09  7.9701760937992716e-09  7.2207657171795433e-09  6.1923755180057937e-09  5.0405451924194034e-09  3.9092214190703511e-09  2.9059336239964686e-09  2.0919232449687750e-09  1.4855284030356193e-09  1.0741507494619526e-09  8.2948523224367266e-10  7.2149047241702111e-10  7.2806698384260740e-10  8.3905574270826847e-10  1.0545514348269926e-09  1.3784067523208934e-09  1.8083099866923588e-09  2.3244916501963870e-09  2.8805450131734059e-09  3.4017129406936552e-09  3.7962306603194732e-09  3.9809861500863923e-09  3.9135162346228290e-09  3.6137141319328050e-09  3.1596190156602698e-09  2.6558045054197482e-09  2.1912658667513404e-09  1.8108781877820348e-09  1.5138332181393226e-09  1.2735713292048008e-09  1.0623711428361734e-09  8.6641537521399562e-10  6.8760511215947700e-10  5.3690513334555109e-10  4.2615992408675407e-10  3.6280397235335700e-10  3.4819088260897610e-10  3.7709224211895439e-10  4.3170693619041950e-10  4.5260806342277478e-10  3.0527967122399573e-10  7.8675889507579290e-11  1.0481698004455083e-11  1.1778008224489958e-12  2.0894549312608775e-13  2.2747916561155037e-13  3.0311094424660201e-12  2.1204546218069957e-11  1.1775197694298248e-11  1.0430300125137021e-12  4.6091990450085003e-14  8.9464488719458180e-15  1.3926984896261838e-14  8.6187112827739794e-14  8.2590252400063283e-13  1.2098888312687910e-11  1.4342225850180328e-10  7.4158926506318197e-10  1.2455907856192091e-09  1.1961852737608033e-09  9.4553412395549300e-10  7.0314904748067214e-10  5.2969968991273152e-10  4.3135434902494287e-10  4.0345084083876068e-10  4.5041350535591007e-10  5.9269074642126644e-10  8.6384423402971056e-10  1.2989827040023566e-09  1.9163079901694127e-09  2.6954879213910763e-09  3.5587605962690622e-09  4.3607186120504348e-09  4.8867296203763660e-09  4.8430314422831800e-09  3.8083287718605148e-09  1.6214412187547054e-09  1.7901101203323260e-10  4.4199506641609936e-12  1.2084080930415449e-13  4.7482898577442488e-15  -7.4614629594535280e-17  3.6971024277802710e-17  -7.1405882161382538e-18  -2.1936648762944361e-18  -2.2014058403269252e-18  1.6483012803368902e-08  1.5884659602468751e-08  1.4219906698313712e-08  1.1838330701456039e-08  9.2023943353371196e-09  6.7604822670357844e-09  4.8478829501799562e-09  3.6430498622069972e-09  3.1751828710777406e-09  3.3592429598573813e-09  4.0348732873061644e-09  4.9984944906519615e-09  6.0300234505290342e-09  6.9199174179058086e-09  7.4986675650304646e-09  7.6639203221179603e-09  7.3959180166144330e-09  6.7539017219353531e-09  5.8536710902304916e-09  4.8344584238537558e-09  3.8265311921353913e-09  2.9284630114384547e-09  2.1976289077682397e-09  1.6526142109044216e-09  1.2835163206081646e-09  1.0654416120618458e-09  9.7111389612051339e-10  9.7977631681495103e-10  1.0810224299081614e-09  1.2734637601142472e-09  1.5590070042635867e-09  1.9340552079239675e-09  2.3796022385385302e-09  2.8534255846600608e-09  3.2890831607720680e-09  3.6064047083585035e-09  3.7342157855139224e-09  3.6380288520124425e-09  3.3382376551710848e-09  2.9055949248962786e-09  2.4331533469539569e-09  1.9995617091792292e-09  1.6444844924074019e-09  1.3675240665976467e-09  1.1457405913055009e-09  9.5515400148921626e-10  7.8394493641629807e-10  6.3409642242050055e-10  5.1557897005135970e-10  4.3908089389716874e-10  4.1115667659253519e-10  4.3252097925305823e-10  4.9757133569638053e-10  5.8991084864290003e-10  6.5942734643962765e-10  5.6450988096084052e-10  2.4104580724235898e-10  5.2077039838974728e-11  1.0308428349413780e-11  3.0958442448056599e-12  4.2094826817233324e-12  3.9816895932232417e-11  1.5454480608336738e-10  7.6156958512622954e-11  7.0959852629319365e-12  5.1155118465003862e-13  9.4757311830394864e-14  1.2025237298148910e-13  4.7596682744530717e-13  3.8951474278178248e-12  3.7958328774188316e-11  3.0429526512909536e-10  1.0323530835934119e-09  1.4145399151592326e-09  1.3140882214221550e-09  1.0691144582904812e-09  8.4035645398907063e-10  6.7424399805195354e-10  5.7475500538326635e-10  5.3809864377008985e-10  5.6929865471886488e-10  6.8795570169239948e-10  9.2538043916263282e-10  1.3140374014248247e-09  1.8708908783706103e-09  2.5780286921581405e-09  3.3659644364055021e-09  4.1053937949163059e-09  4.6091826007482771e-09  4.6361867034170145e-09  3.8812908539217388e-09  2.1183950307520172e-09  4.1793030224245693e-10  2.3691183055969185e-11  1.1512111414033269e-12  3.3058335829090196e-14  4.4379998196281096e-15  9.5042724110587139e-17  7.1253714570273293e-17  3.5480019587522236e-17  3.2241829788100896e-17  1.3912656114578563e-08  1.3429470768474901e-08  1.2080661381802614e-08  1.0138455803963280e-08  7.9681905087220820e-09  5.9320231532413830e-09  4.3101152889861329e-09  3.2616086514123863e-09  2.8251994430415085e-09  2.9429490015992906e-09  3.4895962597251485e-09  4.2985380213514921e-09  5.1849268110168046e-09  5.9697356982693975e-09  6.5058484047573433e-09  6.7018060081912855e-09  6.5354825291236110e-09  6.0517475160528633e-09  5.3443294537921745e-09  4.5285100768895784e-09  3.7139579444971665e-09  2.9851297449268876e-09  2.3924090257553442e-09  1.9532090735361582e-09  1.6599705699218890e-09  1.4912828056138156e-09  1.4226955166569055e-09  1.4346936003262732e-09  1.5164498800414777e-09  1.6650771516016193e-09  1.8809693462700079e-09  2.1604508991998816e-09  2.4876047767486762e-09  2.8281138793416436e-09  3.1289390741313775e-09  3.3273188752618478e-09  3.3691916248230393e-09  3.2308695973780640e-09  2.9325304044821581e-09  2.5335683290777269e-09  2.1097689385826509e-09  1.7243237841257755e-09  1.4088690056244508e-09  1.1631505178452153e-09  9.6922598274038780e-10  8.0865225460175339e-10  6.7299727499198887e-10  5.6508688665213636e-10  4.9417909010654058e-10  4.6979294913281497e-10  4.9731510868765358e-10  5.7612882334609754e-10  6.9908923391988453e-10  8.5002222827376033e-10  9.9055447479693402e-10  1.0175796944112671e-09  7.5387299592220175e-10  3.3790097599321581e-10  1.2851804162403590e-10  7.5921660156130079e-11  1.1950424258692798e-10  3.6185917304953017e-10  6.4792648948373045e-10  3.6975786580940236e-10  6.0939475623645623e-11  6.8900564901113315e-12  1.8493476609784746e-12  1.7744045908897720e-12  5.3862523377982565e-12  2.7754497967584107e-11  1.7166203006287801e-10  7.4427846271273686e-10  1.4524147008401043e-09  1.6439960999472878e-09  1.5094940878838418e-09  1.2928826904484442e-09  1.0961278919355670e-09  9.4798106283791610e-10  8.4943998692292873e-10  7.9801217778706843e-10  8.0004297532041252e-10  8.7478419820269147e-10  1.0514062937480453e-09  1.3596640294000629e-09  1.8156313674094963e-09  2.4054353197225534e-09  3.0716246970462609e-09  3.7073976100741486e-09  4.1617375661900821e-09  4.2533554448140748e-09  3.7885039546012640e-09  2.6113260605822749e-09  1.0082401276200264e-09  1.4925035157611967e-10  1.0990096913286096e-11  9.3698770074489261e-13  7.2871618055847485e-14  7.9088027738807655e-15  6.1807963793603265e-16  -1.3290649855491937e-16  -2.0497201530909768e-16  1.0996276645836599e-08  1.0638841808543238e-08  9.6365909618311014e-09  8.1807685310869806e-09  6.5332271003161907e-09  4.9614623640587814e-09  3.6816860688129462e-09  2.8265315394251293e-09  2.4400606424920995e-09  2.4908605914120293e-09  2.8914653547241967e-09  3.5174880890784389e-09  4.2261042726196247e-09  4.8759755475621877e-09  5.3487472441477122e-09  5.5684263719981430e-09  5.5127121802010155e-09  5.2118649329711815e-09  4.7353017197327849e-09  4.1708367644881650e-09  3.6035098800670364e-09  3.0996873031681721e-09  2.6991045483346986e-09  2.4146613508603469e-09  2.2380225862988385e-09  2.1483806508580590e-09  2.1217095930925621e-09  2.1382287829192832e-09  2.1864939818381863e-09  2.2634536306090216e-09  2.3707791076542452e-09  2.5086347285614374e-09  2.6687761787054523e-09  2.8295295179521963e-09  2.9556035391243487e-09  3.0050069815206838e-09  2.9426079875533540e-09  2.7554474579774457e-09  2.4616026518076894e-09  2.1059623127071419e-09  1.7434945118324397e-09  1.4188436819771317e-09  1.1535803287010494e-09  9.4680858760643718e-10  7.8590521638772246e-10  6.5904914681497326e-10  5.6265425351789660e-10  5.0187870856152916e-10  4.8651331176453555e-10  5.2566859810614835e-10  6.2359682391099369e-10  7.7742536817777821e-10  9.7643484413099619e-10  1.2014013855539381e-09  1.4202021569135573e-09  1.5725524243262759e-09  1.5484562286829376e-09  1.2632283419686417e-09  9.0544309907421975e-10  7.6051142783727875e-10  9.1999411081559952e-10  1.2837250897295815e-09  1.4493474113540930e-09  1.0669281844937827e-09  4.0574588342638540e-10  1.0119650920585821e-10  3.7876788308303685e-11  3.3866892436925896e-11  6.7107796084801841e-11  2.1335156750808987e-10  6.8536259903221730e-10  1.4193415462404466e-09  1.8441557527871812e-09  1.8993516430412039e-09  1.7893171150924898e-09  1.6408375313489672e-09  1.5047226871545696e-09  1.3921167950486676e-09  1.3001328669739714e-09  1.2275645625701195e-09  1.1831866772441467e-09  1.1878276851002700e-09  1.2707983474437365e-09  1.4613746606987808e-09  1.7767326834162359e-09  2.2088736007930672e-09  2.7142845967363610e-09  3.2105647693960139e-09  3.5830949262326321e-09  3.7020788485100369e-09  3.4481461088176038e-09  2.7493209183201642e-09  1.6606062058829347e-09  5.9792408223760970e-10  1.1203215993657489e-10  1.4618205979844253e-11  1.9154966769478958e-12  2.5892403566642536e-13  3.8588650063130335e-14  7.4871226809553409e-15  3.4171243003930198e-15  8.1678377773690832e-09  7.9261655342852359e-09  7.2449933888328062e-09  6.2455866227000701e-09  5.0981474316452760e-09  3.9828329355575114e-09  3.0525096409210270e-09  2.4084112310634456e-09  2.0925980231528964e-09  2.0932591520855068e-09  2.3560453862615079e-09  2.7969562237133696e-09  3.3159755611159655e-09  3.8122092612111182e-09  4.2000504862707010e-09  4.4235099299207520e-09  4.4645867116082577e-09  4.3427521239640989e-09  4.1057404611790214e-09  3.8149541506361805e-09  3.5301308851783846e-09  3.2971761158187493e-09  3.1412429686410804e-09  3.0654368392292018e-09  3.0544321329729760e-09  3.0816333566619779e-09  3.1179872174930723e-09  3.1401648673183859e-09  3.1358976384144951e-09  3.1050269629164214e-09  3.0561832510075931e-09  3.0004256161557514e-09  2.9441450448206050e-09  2.8838687837445000e-09  2.8053054546965838e-09  2.6878694514685098e-09  2.5137615144894249e-09  2.2778977785996041e-09  1.9933000419265437e-09  1.6880583132978322e-09  1.3947564234941662e-09  1.1382491994028492e-09  9.2881640280662764e-10  7.6386251369129617e-10  6.3566159485023091e-10  5.3958617124852532e-10  4.7840541854625507e-10  4.6161970223905835e-10  5.0147967577147642e-10  6.0800613471270270e-10  7.8462435456977177e-10  1.0252125990978818e-09  1.3129912620028794e-09  1.6212977406326305e-09  1.9152278053991567e-09  2.1520342090554276e-09  2.2817559187172937e-09  2.2649501333202485e-09  2.1350374099789221e-09  2.0331256266179238e-09  2.0548106803648627e-09  2.1212996553385422e-09  2.0698921356503772e-09  1.7714291563971178e-09  1.2146649024197859e-09  6.6587522557409158e-10  3.8987514723263134e-10  3.5052349301158096e-10  5.0487236299782155e-10  9.0852763255926120e-10  1.4742988278494796e-09  1.9159179289520348e-09  2.1232008070264470e-09  2.1785014127201712e-09  2.1687584515822342e-09  2.1395341200420143e-09  2.1019352276092697e-09  2.0495007234183275e-09  1.9733322598244752e-09  1.8727031039487606e-09  1.7603236125204476e-09  1.6622045130573075e-09  1.6126250117502370e-09  1.6452928833832084e-09  1.7824297113366982e-09  2.0241800403521119e-09  2.3412486414368720e-09  2.6736896700283984e-09  2.9379371497914812e-09  3.0424370817150501e-09  2.9102832161478268e-09  2.5058312738971604e-09  1.8621371970842740e-09  1.1052390517291933e-09  4.7103301407586293e-10  1.3932826432575880e-10  3.3992881040206948e-11  8.6356501737966258e-12  2.7453553775680174e-12  1.2956384998848091e-12  1.0035071477227532e-12  5.7522223352039835e-09  5.6027259453063664e-09  5.1795170252456737e-09  4.5534031710076518e-09  3.8260931653044102e-09  3.1086664693136138e-09  2.4991441788516203e-09  2.0660339213558494e-09  1.8414218428446236e-09  1.8224624588695358e-09  1.9777281286583851e-09  2.2556240235768690e-09  2.5939325441679407e-09  2.9303776948957382e-09  3.2134071978243292e-09  3.4111706818950175e-09  3.5162426628886083e-09  3.5445993851330888e-09  3.5292261201572655e-09  3.5103874579134119e-09  3.5251894289349558e-09  3.5986283824023036e-09  3.7375557036964046e-09  3.9284983071809192e-09  4.1400231583576726e-09  4.3297623536574404e-09  4.4549214930969543e-09  4.4834517648499529e-09  4.4021658709975102e-09  4.2188723631088708e-09  3.9579577519699211e-09  3.6514865177139383e-09  3.3293969585289571e-09  3.0122300094219760e-09  2.7085097338226870e-09  2.4171173877332308e-09  2.1331909007938643e-09  1.8545998053800033e-09  1.5856227602749836e-09  1.3358506897275710e-09  1.1152544962109530e-09  9.2896185699221638e-10  7.7548250254102084e-10  6.4959269530900432e-10  5.4784027465004214e-10  4.7315919465772877e-10  4.3613603475670796e-10  4.5270953234125858e-10  5.3965302269713530e-10  7.0935944971541900e-10  9.6489465050087916e-10  1.2960872463787033e-09  1.6778411216852032e-09  2.0720249891340119e-09  2.4332642662521904e-09  2.7172050023730418e-09  2.8894983856106220e-09  2.9361589180131449e-09  2.8749027604126349e-09  2.7532706782336436e-09  2.6164260393880311e-09  2.4718461943813955e-09  2.2930109014704815e-09  2.0474669163929732e-09  1.7300387661292206e-09  1.3949604330512380e-09  1.1591188188078050e-09  1.1134572898905629e-09  1.2669900141837156e-09  1.5548972969403435e-09  1.8633810357091494e-09  2.1203672619351733e-09  2.3248342962582347e-09  2.5010661257980807e-09  2.6644586917315449e-09  2.8095450284875450e-09  2.9144059192892497e-09  2.9522882932613994e-09  2.9041505194851868e-09  2.7679159149932446e-09  2.5620774186243842e-09  2.3230844460515472e-09  2.0974765152722367e-09  1.9308223305616097e-09  1.8561191983514308e-09  1.8843650362685242e-09  1.9995608303026644e-09  2.1596136636371474e-09  2.3036732007573818e-09  2.3653550227335622e-09  2.2899924410898522e-09  2.0524949884715095e-09  1.6705069963582628e-09  1.2063617270765510e-09  7.5136321916525239e-10  3.9596732701583600e-10  1.8216457442841740e-10  8.0910028454865648e-11  4.0474736156828181e-11  2.6195257924893015e-11  2.2745265482428069e-11  3.9281995621769080e-09  3.8415975199669336e-09  3.5968631673109812e-09  3.2361133680585461e-09  2.8195698455072946e-09  2.4124976807085804e-09  2.0716462456665207e-09  1.8353251272276985e-09  1.7193846300777381e-09  1.7186135393444833e-09  1.8115488486513092e-09  1.9669211136693519e-09  2.1507941416224987e-09  2.3337247060906747e-09  2.4968849549437129e-09  2.6357928485594754e-09  2.7606791633780882e-09  2.8934748586512089e-09  3.0623166319283779e-09  3.2948025908356629e-09  3.6109546008115267e-09  4.0164622800548154e-09  4.4969386224338098e-09  5.0147788378164877e-09  5.5110694733441001e-09  5.9145396184285906e-09  6.1569922070324606e-09  6.1909142629881846e-09  6.0025659298052827e-09  5.6150264259642361e-09  5.0801771116507141e-09  4.4635791392930794e-09  3.8285817500381568e-09  3.2249133503949982e-09  2.6839570814176756e-09  2.2199754679909891e-09  1.8348409321374039e-09  1.5234145132615982e-09  1.2773357924291159e-09  1.0864090717892524e-09  9.3848672224342859e-10  8.1980200080258400e-10  7.1727048134222401e-10  6.2256851099114914e-10  5.3611200760410370e-10  4.6872927912133059e-10  4.4001953810476395e-10  4.7402990069522880e-10  5.9366712493350418e-10  8.1485457976235863e-10  1.1407757614316085e-09  1.5568371102581876e-09  2.0282695980675005e-09  2.5029969627953442e-09  2.9209136135212907e-09  3.2274826315624383e-09  3.3870738168765102e-09  3.3915732323857504e-09  3.2614292166413835e-09  3.0376730872548827e-09  2.7665423038357185e-09  2.4840533502010675e-09  2.2094284132051603e-09  1.9501514004102199e-09  1.7140343215539706e-09  1.5202775428024468e-09  1.3999797529383472e-09  1.3817404146743751e-09  1.4708914838915595e-09  1.6471375128193537e-09  1.8856139783985552e-09  2.1740818971852708e-09  2.5102517586587656e-09  2.8877246020162683e-09  3.2835359818839654e-09  3.6551848312433596e-09  3.9478827725358392e-09  4.1087407979290928e-09  4.1024351191390832e-09  3.9227242611787343e-09  3.5959412799312516e-09  3.1755015688881570e-09  2.7293289697004075e-09  2.3240197557310517e-09  2.0101588724972262e-09  1.8124276596445200e-09  1.7263566031079589e-09  1.7216323370163565e-09  1.7506123251777234e-09  1.7602654103908745e-09  1.7055444500063315e-09  1.5616180360073871e-09  1.3315568109136100e-09  1.0458583462112254e-09  7.5212740918098439e-10  4.9738636304099789e-10  3.1086467303290721e-10  1.9601828539820578e-10  1.3649129217052960e-10  1.1092040165954996e-10  1.0412864051936412e-10  2.7402627566053526e-09  2.6878672106040043e-09  2.5429115323908810e-09  2.3383459768481269e-09  2.1180468680251903e-09  1.9246300986591363e-09  1.7890920013320572e-09  1.7252063531445951e-09  1.7293134748814720e-09  1.7842510165619498e-09  1.8655923043906340e-09  1.9487790056797278e-09  2.0161339186214219e-09  2.0625466451705778e-09  2.0983267468273181e-09  2.1481846393950538e-09  2.2466375929575295e-09  2.4314474285309134e-09  2.7369638619029185e-09  3.1883066247135567e-09  3.7959657580121983e-09  4.5498