<?xml version="1.0"?>
<VTKFile type="UnstructuredGrid"  version="0.1"  >
<UnstructuredGrid>
<Piece  NumberOfPoints="20201" NumberOfCells="40000">
<Points>
<DataArray  type="Float64"  NumberOfComponents="3"  format="ascii">0 0 0  2 0 0  4 0 0  6 0 0  8 0 0  10 0 0  12 0 0  14 0 0  16 0 0  18 0 0  20 0 0  22 0 0  24 0 0  26 0 0  28 0 0  30 0 0  32 0 0  34 0 0  36 0 0  38 0 0  40 0 0  42 0 0  44 0 0  46 0 0  48 0 0  50 0 0  52 0 0  54 0 0  56 0 0  58 0 0  60 0 0  62 0 0  64 0 0  66 0 0  68 0 0  70 0 0  72 0 0  74 0 0  76 0 0  78 0 0  80 0 0  82 0 0  84 0 0  86 0 0  88 0 0  90 0 0  92 0 0  94 0 0  96 0 0  98 0 0  100 0 0  102 0 0  104 0 0  106 0 0  108 0 0  110 0 0  112 0 0  114 0 0  116 0 0  118 0 0  120 0 0  122 0 0  124 0 0  126 0 0  128 0 0  130 0 0  132 0 0  134 0 0  136 0 0  138 0 0  140 0 0  142 0 0  144 0 0  146 0 0  148 0 0  150 0 0  152 0 0  154 0 0  156 0 0  158 0 0  160 0 0  162 0 0  164 0 0  166 0 0  168 0 0  170 0 0  172 0 0  174 0 0  176 0 0  178 0 0  180 0 0  182 0 0  184 0 0  186 0 0  188 0 0  190 0 0  192 0 0  194 0 0  196 0 0  198 0 0  200 0 0  0 2 0  2 2 0  4 2 0  6 2 0  8 2 0  10 2 0  12 2 0  14 2 0  16 2 0  18 2 0  20 2 0  22 2 0  24 2 0  26 2 0  28 2 0  30 2 0  32 2 0  34 2 0  36 2 0  38 2 0  40 2 0  42 2 0  44 2 0  46 2 0  48 2 0  50 2 0  52 2 0  54 2 0  56 2 0  58 2 0  60 2 0  62 2 0  64 2 0  66 2 0  68 2 0  70 2 0  72 2 0  74 2 0  76 2 0  78 2 0  80 2 0  82 2 0  84 2 0  86 2 0  88 2 0  90 2 0  92 2 0  94 2 0  96 2 0  98 2 0  100 2 0  102 2 0  104 2 0  106 2 0  108 2 0  110 2 0  112 2 0  114 2 0  116 2 0  118 2 0  120 2 0  122 2 0  124 2 0  126 2 0  128 2 0  130 2 0  132 2 0  134 2 0  136 2 0  138 2 0  140 2 0  142 2 0  144 2 0  146 2 0  148 2 0  150 2 0  152 2 0  154 2 0  156 2 0  158 2 0  160 2 0  162 2 0  164 2 0  166 2 0  168 2 0  170 2 0  172 2 0  174 2 0  176 2 0  178 2 0  180 2 0  182 2 0  184 2 0  186 2 0  188 2 0  190 2 0  192 2 0  194 2 0  196 2 0  198 2 0  200 2 0  0 4 0  2 4 0  4 4 0  6 4 0  8 4 0  10 4 0  12 4 0  14 4 0  16 4 0  18 4 0  20 4 0  22 4 0  24 4 0  26 4 0  28 4 0  30 4 0  32 4 0  34 4 0  36 4 0  38 4 0  40 4 0  42 4 0  44 4 0  46 4 0  48 4 0  50 4 0  52 4 0  54 4 0  56 4 0  58 4 0  60 4 0  62 4 0  64 4 0  66 4 0  68 4 0  70 4 0  72 4 0  74 4 0  76 4 0  78 4 0  80 4 0  82 4 0  84 4 0  86 4 0  88 4 0  90 4 0  92 4 0  94 4 0  96 4 0  98 4 0  100 4 0  102 4 0  104 4 0  106 4 0  108 4 0  110 4 0  112 4 0  114 4 0  116 4 0  118 4 0  120 4 0  122 4 0  124 4 0  126 4 0  128 4 0  130 4 0  132 4 0  134 4 0  136 4 0  138 4 0  140 4 0  142 4 0  144 4 0  146 4 0  148 4 0  150 4 0  152 4 0  154 4 0  156 4 0  158 4 0  160 4 0  162 4 0  164 4 0  166 4 0  168 4 0  170 4 0  172 4 0  174 4 0  176 4 0  178 4 0  180 4 0  182 4 0  184 4 0  186 4 0  188 4 0  190 4 0  192 4 0  194 4 0  196 4 0  198 4 0  200 4 0  0 6 0  2 6 0  4 6 0  6 6 0  8 6 0  10 6 0  12 6 0  14 6 0  16 6 0  18 6 0  20 6 0  22 6 0  24 6 0  26 6 0  28 6 0  30 6 0  32 6 0  34 6 0  36 6 0  38 6 0  40 6 0  42 6 0  44 6 0  46 6 0  48 6 0  50 6 0  52 6 0  54 6 0  56 6 0  58 6 0  60 6 0  62 6 0  64 6 0  66 6 0  68 6 0  70 6 0  72 6 0  74 6 0  76 6 0  78 6 0  80 6 0  82 6 0  84 6 0  86 6 0  88 6 0  90 6 0  92 6 0  94 6 0  96 6 0  98 6 0  100 6 0  102 6 0  104 6 0  106 6 0  108 6 0  110 6 0  112 6 0  114 6 0  116 6 0  118 6 0  120 6 0  122 6 0  124 6 0  126 6 0  128 6 0  130 6 0  132 6 0  134 6 0  136 6 0  138 6 0  140 6 0  142 6 0  144 6 0  146 6 0  148 6 0  150 6 0  152 6 0  154 6 0  156 6 0  158 6 0  160 6 0  162 6 0  164 6 0  166 6 0  168 6 0  170 6 0  172 6 0  174 6 0  176 6 0  178 6 0  180 6 0  182 6 0  184 6 0  186 6 0  188 6 0  190 6 0  192 6 0  194 6 0  196 6 0  198 6 0  200 6 0  0 8 0  2 8 0  4 8 0  6 8 0  8 8 0  10 8 0  12 8 0  14 8 0  16 8 0  18 8 0  20 8 0  22 8 0  24 8 0  26 8 0  28 8 0  30 8 0  32 8 0  34 8 0  36 8 0  38 8 0  40 8 0  42 8 0  44 8 0  46 8 0  48 8 0  50 8 0  52 8 0  54 8 0  56 8 0  58 8 0  60 8 0  62 8 0  64 8 0  66 8 0  68 8 0  70 8 0  72 8 0  74 8 0  76 8 0  78 8 0  80 8 0  82 8 0  84 8 0  86 8 0  88 8 0  90 8 0  92 8 0  94 8 0  96 8 0  98 8 0  100 8 0  102 8 0  104 8 0  106 8 0  108 8 0  110 8 0  112 8 0  114 8 0  116 8 0  118 8 0  120 8 0  122 8 0  124 8 0  126 8 0  128 8 0  130 8 0  132 8 0  134 8 0  136 8 0  138 8 0  140 8 0  142 8 0  144 8 0  146 8 0  148 8 0  150 8 0  152 8 0  154 8 0  156 8 0  158 8 0  160 8 0  162 8 0  164 8 0  166 8 0  168 8 0  170 8 0  172 8 0  174 8 0  176 8 0  178 8 0  180 8 0  182 8 0  184 8 0  186 8 0  188 8 0  190 8 0  192 8 0  194 8 0  196 8 0  198 8 0  200 8 0  0 10 0  2 10 0  4 10 0  6 10 0  8 10 0  10 10 0  12 10 0  14 10 0  16 10 0  18 10 0  20 10 0  22 10 0  24 10 0  26 10 0  28 10 0  30 10 0  32 10 0  34 10 0  36 10 0  38 10 0  40 10 0  42 10 0  44 10 0  46 10 0  48 10 0  50 10 0  52 10 0  54 10 0  56 10 0  58 10 0  60 10 0  62 10 0  64 10 0  66 10 0  68 10 0  70 10 0  72 10 0  74 10 0  76 10 0  78 10 0  80 10 0  82 10 0  84 10 0  86 10 0  88 10 0  90 10 0  92 10 0  94 10 0  96 10 0  98 10 0  100 10 0  102 10 0  104 10 0  106 10 0  108 10 0  110 10 0  112 10 0  114 10 0  116 10 0  118 10 0  120 10 0  122 10 0  124 10 0  126 10 0  128 10 0  130 10 0  132 10 0  134 10 0  136 10 0  138 10 0  140 10 0  142 10 0  144 10 0  146 10 0  148 10 0  150 10 0  152 10 0  154 10 0  156 10 0  158 10 0  160 10 0  162 10 0  164 10 0  166 10 0  168 10 0  170 10 0  172 10 0  174 10 0  176 10 0  178 10 0  180 10 0  182 10 0  184 10 0  186 10 0  188 10 0  190 10 0  192 10 0  194 10 0  196 10 0  198 10 0  200 10 0  0 12 0  2 12 0  4 12 0  6 12 0  8 12 0  10 12 0  12 12 0  14 12 0  16 12 0  18 12 0  20 12 0  22 12 0  24 12 0  26 12 0  28 12 0  30 12 0  32 12 0  34 12 0  36 12 0  38 12 0  40 12 0  42 12 0  44 12 0  46 12 0  48 12 0  50 12 0  52 12 0  54 12 0  56 12 0  58 12 0  60 12 0  62 12 0  64 12 0  66 12 0  68 12 0  70 12 0  72 12 0  74 12 0  76 12 0  78 12 0  80 12 0  82 12 0  84 12 0  86 12 0  88 12 0  90 12 0  92 12 0  94 12 0  96 12 0  98 12 0  100 12 0  102 12 0  104 12 0  106 12 0  108 12 0  110 12 0  112 12 0  114 12 0  116 12 0  118 12 0  120 12 0  122 12 0  124 12 0  126 12 0  128 12 0  130 12 0  132 12 0  134 12 0  136 12 0  138 12 0  140 12 0  142 12 0  144 12 0  146 12 0  148 12 0  150 12 0  152 12 0  154 12 0  156 12 0  158 12 0  160 12 0  162 12 0  164 12 0  166 12 0  168 12 0  170 12 0  172 12 0  174 12 0  176 12 0  178 12 0  180 12 0  182 12 0  184 12 0  186 12 0  188 12 0  190 12 0  192 12 0  194 12 0  196 12 0  198 12 0  200 12 0  0 14 0  2 14 0  4 14 0  6 14 0  8 14 0  10 14 0  12 14 0  14 14 0  16 14 0  18 14 0  20 14 0  22 14 0  24 14 0  26 14 0  28 14 0  30 14 0  32 14 0  34 14 0  36 14 0  38 14 0  40 14 0  42 14 0  44 14 0  46 14 0  48 14 0  50 14 0  52 14 0  54 14 0  56 14 0  58 14 0  60 14 0  62 14 0  64 14 0  66 14 0  68 14 0  70 14 0  72 14 0  74 14 0  76 14 0  78 14 0  80 14 0  82 14 0  84 14 0  86 14 0  88 14 0  90 14 0  92 14 0  94 14 0  96 14 0  98 14 0  100 14 0  102 14 0  104 14 0  106 14 0  108 14 0  110 14 0  112 14 0  114 14 0  116 14 0  118 14 0  120 14 0  122 14 0  124 14 0  126 14 0  128 14 0  130 14 0  132 14 0  134 14 0  136 14 0  138 14 0  140 14 0  142 14 0  144 14 0  146 14 0  148 14 0  150 14 0  152 14 0  154 14 0  156 14 0  158 14 0  160 14 0  162 14 0  164 14 0  166 14 0  168 14 0  170 14 0  172 14 0  174 14 0  176 14 0  178 14 0  180 14 0  182 14 0  184 14 0  186 14 0  188 14 0  190 14 0  192 14 0  194 14 0  196 14 0  198 14 0  200 14 0  0 16 0  2 16 0  4 16 0  6 16 0  8 16 0  10 16 0  12 16 0  14 16 0  16 16 0  18 16 0  20 16 0  22 16 0  24 16 0  26 16 0  28 16 0  30 16 0  32 16 0  34 16 0  36 16 0  38 16 0  40 16 0  42 16 0  44 16 0  46 16 0  48 16 0  50 16 0  52 16 0  54 16 0  56 16 0  58 16 0  60 16 0  62 16 0  64 16 0  66 16 0  68 16 0  70 16 0  72 16 0  74 16 0  76 16 0  78 16 0  80 16 0  82 16 0  84 16 0  86 16 0  88 16 0  90 16 0  92 16 0  94 16 0  96 16 0  98 16 0  100 16 0  102 16 0  104 16 0  106 16 0  108 16 0  110 16 0  112 16 0  114 16 0  116 16 0  118 16 0  120 16 0  122 16 0  124 16 0  126 16 0  128 16 0  130 16 0  132 16 0  134 16 0  136 16 0  138 16 0  140 16 0  142 16 0  144 16 0  146 16 0  148 16 0  150 16 0  152 16 0  154 16 0  156 16 0  158 16 0  160 16 0  162 16 0  164 16 0  166 16 0  168 16 0  170 16 0  172 16 0  174 16 0  176 16 0  178 16 0  180 16 0  182 16 0  184 16 0  186 16 0  188 16 0  190 16 0  192 16 0  194 16 0  196 16 0  198 16 0  200 16 0  0 18 0  2 18 0  4 18 0  6 18 0  8 18 0  10 18 0  12 18 0  14 18 0  16 18 0  18 18 0  20 18 0  22 18 0  24 18 0  26 18 0  28 18 0  30 18 0  32 18 0  34 18 0  36 18 0  38 18 0  40 18 0  42 18 0  44 18 0  46 18 0  48 18 0  50 18 0  52 18 0  54 18 0  56 18 0  58 18 0  60 18 0  62 18 0  64 18 0  66 18 0  68 18 0  70 18 0  72 18 0  74 18 0  76 18 0  78 18 0  80 18 0  82 18 0  84 18 0  86 18 0  88 18 0  90 18 0  92 18 0  94 18 0  96 18 0  98 18 0  100 18 0  102 18 0  104 18 0  106 18 0  108 18 0  110 18 0  112 18 0  114 18 0  116 18 0  118 18 0  120 18 0  122 18 0  124 18 0  126 18 0  128 18 0  130 18 0  132 18 0  134 18 0  136 18 0  138 18 0  140 18 0  142 18 0  144 18 0  146 18 0  148 18 0  150 18 0  152 18 0  154 18 0  156 18 0  158 18 0  160 18 0  162 18 0  164 18 0  166 18 0  168 18 0  170 18 0  172 18 0  174 18 0  176 18 0  178 18 0  180 18 0  182 18 0  184 18 0  186 18 0  188 18 0  190 18 0  192 18 0  194 18 0  196 18 0  198 18 0  200 18 0  0 20 0  2 20 0  4 20 0  6 20 0  8 20 0  10 20 0  12 20 0  14 20 0  16 20 0  18 20 0  20 20 0  22 20 0  24 20 0  26 20 0  28 20 0  30 20 0  32 20 0  34 20 0  36 20 0  38 20 0  40 20 0  42 20 0  44 20 0  46 20 0  48 20 0  50 20 0  52 20 0  54 20 0  56 20 0  58 20 0  60 20 0  62 20 0  64 20 0  66 20 0  68 20 0  70 20 0  72 20 0  74 20 0  76 20 0  78 20 0  80 20 0  82 20 0  84 20 0  86 20 0  88 20 0  90 20 0  92 20 0  94 20 0  96 20 0  98 20 0  100 20 0  102 20 0  104 20 0  106 20 0  108 20 0  110 20 0  112 20 0  114 20 0  116 20 0  118 20 0  120 20 0  122 20 0  124 20 0  126 20 0  128 20 0  130 20 0  132 20 0  134 20 0  136 20 0  138 20 0  140 20 0  142 20 0  144 20 0  146 20 0  148 20 0  150 20 0  152 20 0  154 20 0  156 20 0
[...]
<PointData  Scalars="f_271-2"> 
<DataArray  type="Float64"  Name="f_271-2"  format="ascii">2.6455897789827269e-04  2.5090147382289112e-04  2.1384439247995780e-04  1.6354196682017043e-04  1.1223809182203898e-04  6.9712086254579365e-05  4.0931493385808281e-05  2.6568398609150540e-05  2.4842856835541612e-05  3.3017945455389460e-05  4.8054000041959089e-05  6.6731411034922999e-05  8.5626515195660991e-05  1.0123926102490992e-04  1.1049568864111527e-04  1.1154461862414926e-04  1.0436924737536913e-04  9.0732071094894808e-05  7.3450268634201157e-05  5.5449259124644814e-05  3.9050000501415939e-05  2.5652946375413946e-05  1.5746850762901732e-05  9.1137993187151484e-06  5.1248563617758231e-06  3.0412167412836957e-06  2.2534797028234113e-06  2.4202932543400746e-06  3.5003831778758844e-06  5.6973912811783232e-06  9.3482888609053806e-06  1.4777854184048842e-05  2.2115205004913382e-05  3.1050969844469676e-05  4.0566279347689028e-05  4.8824726302064077e-05  5.3560001156019022e-05  5.3099522380089720e-05  4.7524044197313684e-05  3.8953579824942892e-05  3.0422160636868517e-05  2.4103458517623005e-05  2.0344189103827920e-05  1.8115365828245767e-05  1.6152929897869532e-05  1.3760953157269819e-05  1.0926618631740769e-05  8.0202926286306398e-06  5.4564459403934732e-06  3.5001482646414173e-06  2.2275050767735969e-06  1.5797801032360488e-06  1.4504906168779971e-06  1.7633012707026766e-06  2.5110019926308653e-06  3.7165539285014125e-06  5.2162001172719361e-06  6.0016634947256332e-06  3.8061809543034930e-06  7.0607832239121861e-07  8.2275767738843378e-08  1.7139144992845043e-07  1.8176957204961749e-06  3.3606819379571806e-06  6.6406375274884842e-07  3.8672590837816646e-08  7.1841588145122810e-09  1.5736443984859688e-08  2.2506855949180081e-07  3.7995336835261694e-06  1.8016568741834635e-05  2.6422870061846008e-05  2.3828084202218663e-05  1.7372278424456429e-05  1.1109085128730947e-05  6.4993321528625179e-06  3.7022543359734257e-06  2.3046431636915930e-06  1.7545356012319637e-06  1.6390191377906383e-06  1.8648503188458716e-06  2.7413289197518369e-06  4.9468386317416085e-06  9.3700256130804263e-06  1.6821510766040777e-05  2.7619588404485716e-05  4.1117741566083523e-05  5.5374593030708499e-05  6.7231532315066653e-05  7.2860142878823902e-05  6.8414581547344324e-05  5.0365239952699064e-05  2.0191808861645811e-05  1.8273577750973579e-06  -1.0326788869359435e-09  8.1234289794305101e-10  1.8041208094543205e-11  1.2643623074571990e-11  3.0014814983744675e-11  5.5197084788866877e-11  6.8616726310399281e-11  2.5250553155670808e-04  2.3970639556582165e-04  2.0489256572938790e-04  1.5741738303564904e-04  1.0869021227533982e-04  6.7979932488124864e-05  4.0143992770291300e-05  2.6001311791113690e-05  2.4000334848143961e-05  3.1615109691070180e-05  4.5970050912484734e-05  6.3966039847557847e-05  8.2276149587411762e-05  9.7494711179953752e-05  1.0663699815291614e-04  1.0790179281797691e-04  1.0124736929692360e-04  8.8335992869450434e-05  7.1847594156458752e-05  5.4581869004213530e-05  3.8776861255667928e-05  2.5800489744858020e-05  1.6151052753470146e-05  9.6470956647291284e-06  5.7067657750769235e-06  3.6350839687204871e-06  2.8537490504756600e-06  3.0351526281523286e-06  4.1339407992400998e-06  6.3343632922655687e-06  9.9429073468757011e-06  1.5248128530771308e-05  2.2345089192817449e-05  3.0906665842692199e-05  3.9934680142658557e-05  4.7672272160848641e-05  5.1984513360337132e-05  5.1326177812000708e-05  4.5818781453924859e-05  3.7496936797959709e-05  2.9237180734022022e-05  2.3092764028415064e-05  1.9394121225691480e-05  1.7177252197877235e-05  1.5254684185182054e-05  1.2968894842885470e-05  1.0301069866127290e-05  7.5914749510955626e-06  5.2232535636730734e-06  3.4423007478075840e-06  2.3205901576766447e-06  1.8063098626616568e-06  1.8041454064434683e-06  2.2467059818926885e-06  3.1299977122314342e-06  4.4783172072426862e-06  6.1541169723277554e-06  7.3004854929835629e-06  5.6912483753995536e-06  1.8840592463052570e-06  5.1276675164058177e-07  9.0316909524879666e-07  4.4116354583161634e-06  6.2304437116301099e-06  1.4385384671456206e-06  1.1492795766657174e-07  2.6837260962931417e-08  5.5170888032676508e-08  5.3968375015087978e-07  5.8907721902444221e-06  2.0428289319576853e-05  2.7087722268489639e-05  2.3962922503598500e-05  1.7527090128746148e-05  1.1366653764877293e-05  6.8114085807115364e-06  4.0059915622873372e-06  2.5617396071657552e-06  1.9585603079317929e-06  1.8069273360692175e-06  2.0196033052055018e-06  2.8912053232080464e-06  5.0674256671820765e-06  9.3945387483491148e-06  1.6644953151319640e-05  2.7122735152931442e-05  4.0213771823482929e-05  5.4069177775324125e-05  6.5673590322885538e-05  7.1371599016898982e-05  6.7550926077266700e-05  5.1133378961089146e-05  2.2989910909064062e-05  2.8771955024410273e-06  3.5740163446374892e-08  2.3149347097353354e-09  -3.9115464910846321e-11  2.3663783566808149e-11  2.9450713238052496e-11  5.6144103404169711e-11  6.9735297009757037e-11  2.1962176893463222e-04  2.0908753118683239e-04  1.8022372548278309e-04  1.4032441461272468e-04  9.8606959025742105e-05  6.2942639229800827e-05  3.7826045977705428e-05  2.4411586009758287e-05  2.1730689029849456e-05  2.7818988084324278e-05  4.0256114428126854e-05  5.6296756539549355e-05  7.2910934390749485e-05  8.6977374406336776e-05  9.5767092647435804e-05  9.7615296872087629e-05  9.2407913668850848e-05  8.1529565768912241e-05  6.7281271549865420e-05  5.2113154167092999e-05  3.8028363942748486e-05  2.6296963511029561e-05  1.7435657398666623e-05  1.1357320196282350e-05  7.6058774137410340e-06  5.6048874608790713e-06  4.8604525721486312e-06  5.0818872680375138e-06  6.2119153341730324e-06  8.3813696230497576e-06  1.1814298820817150e-05  1.6703740106591758e-05  2.3059218488537816e-05  3.0517364504322775e-05  3.8151632546838592e-05  4.4434744776232482e-05  4.7593108945143790e-05  4.6419956732227578e-05  4.1133209737344619e-05  3.3523264116700445e-05  2.6033477956781910e-05  2.0389550322984131e-05  1.6877597935492502e-05  1.4708251580351177e-05  1.2899758507229951e-05  1.0898757375212462e-05  8.6734750190750253e-06  6.4886089090929484e-06  4.6492362608092004e-06  3.3546840643665002e-06  2.6679122744009263e-06  2.5539474721213515e-06  2.9417477456580506e-06  3.7790216437460077e-06  5.0596857944602158e-06  6.7996554731963795e-06  8.9095113610916431e-06  1.0861372824319539e-05  1.1153718861346354e-05  8.3945734559026517e-06  5.8972073944087675e-06  7.9148271644084087e-06  1.4664277270205597e-05  1.5665377066507175e-05  6.6221285296174253e-06  1.4580162804618839e-06  5.6681020626357440e-07  8.6732013133724618e-07  3.6310739916212517e-06  1.3988735657037297e-05  2.5806408560068657e-05  2.8329154600052018e-05  2.4220688075121015e-05  1.7993618021380151e-05  1.2200092620830627e-05  7.8548258188240208e-06  5.0687380719465746e-06  3.5205616556758312e-06  2.7777749646998878e-06  2.5163194925716468e-06  2.6677943182754844e-06  3.4893137731453497e-06  5.5391681265184003e-06  9.5483425930919153e-06  1.6183454134427577e-05  2.5706191562403294e-05  3.7585685357530168e-05  5.0221297721807967e-05  6.0990290081617043e-05  6.6712274489368512e-05  6.4357357489226068e-05  5.1777540762579832e-05  2.9368932659508987e-05  7.4575186962085431e-06  5.1392525062442895e-07  1.4805281191932884e-08  1.1408700381605370e-09  6.3658055463911217e-11  5.0497204837561117e-11  6.9795228183528636e-11  8.3785811503190117e-11  1.7427964323135561e-04  1.6667566849576433e-04  1.4558627053732316e-04  1.1577784880596312e-04  8.3664710180256241e-05  5.5189808884843549e-05  3.4194012871772196e-05  2.2124041393601122e-05  1.8704481000702036e-05  2.2703037485312152e-05  3.2342110380320393e-05  4.5425525501761348e-05  5.9417415888469663e-05  7.1662640982423246e-05  7.9825315795213874e-05  8.2438193187103764e-05  7.9282343931950049e-05  7.1350849624337572e-05  6.0409660286906874e-05  4.8407078016021241e-05  3.6996344627159732e-05  2.7285232233919799e-05  1.9792039665733585e-05  1.4542104030458048e-05  1.1241362033912360e-05  9.4697950744697391e-06  8.8450800537642132e-06  9.1236371229236809e-06  1.0229255407835755e-05  1.2219533815812078e-05  1.5210655192568250e-05  1.9278205922514789e-05  2.4339452093647910e-05  3.0018583976418183e-05  3.5530588709262017e-05  3.9696800690829476e-05  4.1245582539611603e-05  3.9409469956466390e-05  3.4500419314572530e-05  2.7947435220785350e-05  2.1593528845106146e-05  1.6716812441597308e-05  1.3537391251953556e-05  1.1492021965145539e-05  9.8692513141775134e-06  8.2573663819644155e-06  6.6182630643804089e-06  5.1328170773104734e-06  4.0202508721559540e-06  3.4319962906759507e-06  3.4247006114427003e-06  3.9802814392229975e-06  5.0425848605801883e-06  6.5519968637992902e-06  8.4665725099485317e-06  1.0755800239441528e-05  1.3342436765466512e-05  1.5965497957738290e-05  1.8026738693428010e-05  1.8893520228510200e-05  1.9517859938794384e-05  2.2555072050408612e-05  2.7009639906529852e-05  2.7233850191045283e-05  2.0086962423389865e-05  1.1158942822281427e-05  7.3213045323741637e-06  8.7721334355360326e-06  1.5637479935043573e-05  2.4959899581400029e-05  2.9836821369982727e-05  2.8824498819291398e-05  2.4329595312871488e-05  1.8803327404228863e-05  1.3781881084128258e-05  9.9272794839706972e-06  7.3117956217945069e-06  5.7034112394490233e-06  4.7893575082914342e-06  4.3397965037593304e-06  4.3202769806541643e-06  4.9459896113806916e-06  6.6635192480810858e-06  1.0050333894211252e-05  1.5627891166380407e-05  2.3594821455709981e-05  3.3525912070047399e-05  4.4154861044575061e-05  5.3403843292417000e-05  5.8754049000177302e-05  5.7885140910592648e-05  4.9433256661585003e-05  3.3942870431900664e-05  1.5615121025406936e-05  3.5383992219495086e-06  3.6624955899607668e-07  2.5589375837320959e-08  1.4770793522287801e-09  -6.4585702519895262e-11  -1.3481247935707359e-11  3.0325569444894706e-11  1.2642979680866151e-04  1.2164971005490806e-04  1.0815754629897482e-04  8.8478747312416243e-05  6.6390424556633074e-05  4.5826554684318467e-05  2.9736107824560490e-05  1.9623513423341827e-05  1.5766088980369471e-05  1.7624719262266757e-05  2.4107879082634138e-05  3.3676556332976873e-05  4.4434611586530776e-05  5.4334387850266747e-05  6.1534131229270395e-05  6.4813662499203125e-05  6.3856095111848688e-05  5.9239391752433349e-05  5.2148370380111885e-05  4.3968690627967585e-05  3.5938698210635793e-05  2.8945212933135145e-05  2.3461935283970745e-05  1.9593603782629840e-05  1.7185047292416771e-05  1.5955116260629913e-05  1.5618145172713435e-05  1.5965482602583005e-05  1.6895454396980956e-05  1.8395722951764611e-05  2.0491747893711867e-05  2.3176024704283008e-05  2.6327412034074534e-05  2.9629560442466175e-05  3.2518358620345316e-05  3.4227899666248715e-05  3.4011629276513707e-05  3.1515158804381753e-05  2.7089612608692308e-05  2.1752405115403410e-05  1.6716446534383590e-05  1.2793157981515193e-05  1.0114539145718340e-05  8.3200620999235666e-06  6.9559256530244873e-06  5.7584636923953433e-06  4.7073229584347654e-06  3.9332747044849973e-06  3.6032280710613306e-06  3.8455242790169055e-06  4.7199905622736035e-06  6.2147747746823744e-06  8.2553774676916315e-06  1.0721394140784041e-05  1.3470134413524468e-05  1.6359772361653364e-05  1.9255414966434947e-05  2.2008227967055484e-05  2.4447565553933910e-05  2.6509409053529811e-05  2.8487125636380924e-05  3.0786321999492316e-05  3.2856948702700930e-05  3.3078903502812731e-05  3.0353285499455842e-05  2.5841822662109040e-05  2.2890517160983159e-05  2.3653110837869643e-05  2.7016204230146619e-05  2.9875727259929830e-05  3.0183732238305545e-05  2.7939195406179652e-05  2.4182593975566713e-05  2.0061023022162464e-05  1.6365883732985167e-05  1.3450380596467148e-05  1.1333410846783162e-05  9.8548795728974885e-06  8.8168315494342365e-06  8.0923491537244430e-06  7.6995598016919727e-06  7.8346719113638074e-06  8.8539738411869441e-06  1.1196866198240775e-05  1.5247572715305119e-05  2.1143875824667714e-05  2.8567972283266966e-05  3.6598709298619951e-05  4.3733694284610695e-05  4.8155686723124786e-05  4.8219889129947775e-05  4.3051916213460648e-05  3.3127064849084439e-05  2.0659125462214121e-05  9.3927871760793155e-06  2.7909191002679056e-06  5.5772853521824517e-07  9.9389396428512907e-08  2.3251930679176232e-08  1.0000144628278481e-08  7.9177830844893631e-09  8.4081964516373613e-05  8.1519877439237455e-05  7.4104438479311027e-05  6.2813426473034482e-05  4.9445830783425945e-05  3.6226559990847952e-05  2.5128726372568699e-05  1.7433238677532827e-05  1.3683604498324103e-05  1.3833729825720504e-05  1.7378045379062933e-05  2.3419476989893334e-05  3.0743385992719673e-05  3.7972451480537636e-05  4.3818320206762391e-05  4.7364492142391356e-05  4.8262487336397690e-05  4.6749668465482914e-05  4.3492187583135727e-05  3.9342394284809477e-05  3.5113237408556451e-05  3.1426828137513880e-05  2.8645866768184402e-05  2.6874385378769268e-05  2.6009635670947410e-05  2.5824739974092724e-05  2.6058951057186462e-05  2.6492752185888712e-05  2.6990665869052121e-05  2.7504802405262707e-05  2.8043802179247448e-05  2.8620077186634502e-05  2.9190445850268014e-05  2.9605546431427923e-05  2.9590085844576649e-05  2.8787327107770907e-05  2.6892697264131801e-05  2.3843897252729548e-05  1.9950455378976152e-05  1.5829178482815120e-05  1.2135913203644312e-05  9.2656296973208674e-06  7.2370538366215498e-06  5.8170603136584403e-06  4.7470390339141951e-06  3.9012561911587020e-06  3.3162024353161065e-06  3.1340165947979040e-06  3.5266974364183361e-06  4.6375779724799911e-06  6.5424273285801772e-06  9.2199489464172517e-06  1.2530789812231623e-05  1.6219687366151677e-05  1.9956146033374734e-05  2.3408195515478702e-05  2.6318818029659877e-05  2.8552416917397484e-05  3.0107095106649174e-05  3.1112407468986330e-05  3.1790296254623385e-05  3.2300126709583580e-05  3.2530255618587720e-05  3.2122394952542284e-05  3.0870092807242944e-05  2.9156378079370979e-05  2.7862345900489351e-05  2.7584671021284106e-05  2.7967233850534594e-05  2.8118280503834892e-05  2.7439745431842144e-05  2.5921049370787035e-05  2.3942002981886147e-05  2.1948226848955115e-05  2.0232725246563070e-05  1.8871878143482243e-05  1.7774527624134744e-05  1.6779491177359513e-05  1.5751496807863951e-05  1.4651059836192595e-05  1.3572420024946210e-05  1.2748980858827303e-05  1.2522929512643433e-05  1.3275103873600887e-05  1.5317573971125043e-05  1.8762210645348767e-05  2.3392471814171458e-05  2.8583881193013971e-05  3.3331374983713470e-05  3.6426865667627066e-05  3.6779418205420931e-05  3.3805485490960550e-05  2.7764544803266736e-05  1.9871937113713255e-05  1.1997811423502021e-05  5.9048982837718128e-06  2.3660752966683254e-06  8.5366347388026505e-07  3.5933276700162509e-07  2.2882886844119719e-07  2.0482455422499064e-07  5.1582517071404609e-05  5.0466879392340137e-05  4.7116405147870542e-05  4.1705770329768867e-05  3.4857520792429359e-05  2.7594004949383836e-05  2.1008460105337012e-05  1.5960977176447031e-05  1.2960823496664978e-05  1.2180161940578103e-05  1.3494861288536348e-05  1.6514953121382937e-05  2.0629350661315914e-05  2.5098763901792777e-05  2.9200343059363284e-05  3.2386665453135986e-05  3.4399085685856590e-05  3.5290629475665673e-05  3.5358651394364524e-05  3.5027507939618990e-05  3.4728194229589196e-05  3.4801641524965963e-05  3.5432418688198826e-05  3.6614876588859109e-05  3.8157629901616063e-05  3.9731968895756076e-05  4.0959507835020887e-05  4.1516851895655500e-05  4.1221043658338023e-05  4.0062771233103439e-05  3.8177770991114075e-05  3.5775560187733320e-05  3.3059186234768333e-05  3.0165516494005087e-05  2.7143719847609849e-05  2.3979605345888618e-05  2.0661044858015605e-05  1.7255858079636666e-05  1.3948839969594304e-05  1.0993371197447359e-05  8.5928103028239238e-06  6.7945461099425056e-06  5.4813080527063428e-06  4.4669517822639926e-06  3.6235711267457075e-06  2.9582504426072364e-06  2.6112868767029672e-06  2.8017205067417741e-06  3.7619818221528743e-06  5.6846564802812586e-06  8.6750211352180933e-06  1.2692787597066495e-05  1.7491957872741814e-05  2.2605572928877014e-05  2.7421615470535245e-05  3.1341322366214266e-05  3.3949209979674385e-05  3.5113942568087533e-05  3.4986087569264333e-05  3.3913876441974157e-05  3.2316822033109680e-05  3.0552404238886988e-05  2.8823426672411779e-05  2.7185574197307999e-05  2.5660480819608854e-05  2.4352257600115541e-05  2.3431665142197003e-05  2.2986760654873961e-05  2.2920782320097949e-05  2.3036311948508899e-05  2.3209205169211486e-05  2.3467484988340054e-05  2.3926914614244496e-05  2.4662887015147746e-05  2.5611575926893577e-05  2.6551439669720726e-05  2.7167178705453578e-05  2.7160194837014575e-05  2.6353823538556356e-05  2.4755124647413301e-05  2.2564924524998346e-05  2.0146590358505903e-05  1.7961377906430348e-05  1.6473590980911147e-05  1.6039189808944434e-05  1.6804812246568613e-05  1.8642552688481046e-05  2.1135544802288782e-05  2.3625995131427038e-05  2.5336748517879111e-05  2.5562553244074678e-05  2.3894048963497104e-05  2.0400768170762468e-05  1.5678955265474661e-05  1.0689777353391018e-05  6.4036272479366383e-06  3.4126420362984560e-06  1.7539049599141664e-06  1.0546642312627335e-06  8.5101610828488658e-07  8.1964434125084486e-07  2.9948939473987085e-05  2.9569628996657467e-05  2.8387805647650705e-05  2.6374797590694887e-05  2.3684337103035420e-05  2.0675063092408449e-05  1.7784015407936704e-05  1.5388279504094476e-05  1.3740618500030003e-05  1.2964832424016061e-05  1.3066854788168626e-05  1.3946530289855947e-05  1.5422440049636615e-05  1.7279009606171725e-05  1.9325475687871091e-05  2.1445114232550955e-05  2.3618035664512627e-05  2.5913876788909354e-05  2.8463020456635418e-05  3.1419960766607336e-05  3.4925555739537900e-05  3.9061985893165721e-05  4.3791639221471871e-05  4.8888066877641137e-05  5.3893423400461854e-05  5.8150367155188296e-05  6.0936322756589949e-05  6.1670693373557366e-05  6.0104666513406701e-05  5.6395787879776182e-05  5.1034605721035747e-05  4.4676327835178957e-05  3.7967495071074967e-05  3.1431981213119291e-05  2.5431283696679617e-05  2.0179975391965121e-05  1.5786513803238421e-05  1.2291392081676528e-05  9.6818473193085745e-06  7.8784748612597209e-06  6.7140339202804109e-06  5.9412909963955781e-06  5.2932965487170773e-06  4.5795831920406069e-06  3.7688664120669768e-06  3.0126096635828753e-06  2.6002678787896215e-06  2.8768285057009580e-06  4.1678174684017405e-06  6.7328596078865395e-06  1.0720584890680577e-05  1.6078983263691480e-05  2.2435407207617656e-05  2.9051142878957082e-05  3.4953018709668298e-05  3.9219536418037578e-05  4.1274272964883029e-05  4.1035043820944888e-05  3.8870886320972411e-05  3.5426911447751639e-05  3.1414720474852034e-05  2.7442182728260944e-05  2.3918958366966783e-05  2.1046085294471869e-05  1.8871397416144416e-05  1.7367713648841263e-05  1.6489890111559381e-05  1.6199570292242672e-05  1.6480059034572201e-05  1.7358044283025979e-05  1.8914939201268944e-05  2.1256260582622481e-05  2.4430658022375305e-05  2.8325853156445160e-05  3.2592251783577259e-05  3.6647768883613045e-05  3.9790554380442164e-05  4.1389686148893995e-05  4.1072073319627126e-05  3.8826169307032767e-05  3.4999515792138101e-05  3.0216225451476976e-05  2.5242220011308302e-05  2.0816171756185285e-05  1.7483587475944114e-05  1.5491020419576309e-05  1.4771405212890648e-05  1.5001053438322926e-05  1.5689291355060393e-05  1.6281344682685469e-05  1.6274731046620504e-05  1.5341871382176807e-05  1.3427580110277146e-05  1.0776192654872080e-05  7.8569657127977480e-06  5.1992194794147888e-06  3.2016919169787445e-06  2.0052091765194405e-06  1.4858559464190233e-06  1.3612982136223019e-06  1.3573012933343460e-06  1.8205845484872292e-05  1.8005048693465599e-05  1.7472504688752363e-05  1.6786329182006697e-05  1.6156020515283353e-05  1.5738878296996317e-05  1.5587669651331323e-05  1.5650089761202856e-05  1.5810659668479102e-05  1.5941710130556157e-05  1.5937498753528928e-05  1.5737663873174453e-05  1.5361311724433763e-05  1.4947927503695876e-05  1.4769333739135364e-05  1.5185565010112593e-05  1.6560967339554440e-05  1.9185488610905083e-05  2.3235357591069044e-05  2.8776791352970265e-05  3.5788419917565560e-05  4.4160224