<?xml version="1.0"?>
<VTKFile type="UnstructuredGrid"  version="0.1"  >
<UnstructuredGrid>
<Piece  NumberOfPoints="20201" NumberOfCells="40000">
<Points>
<DataArray  type="Float64"  NumberOfComponents="3"  format="ascii">0 0 0  2 0 0  4 0 0  6 0 0  8 0 0  10 0 0  12 0 0  14 0 0  16 0 0  18 0 0  20 0 0  22 0 0  24 0 0  26 0 0  28 0 0  30 0 0  32 0 0  34 0 0  36 0 0  38 0 0  40 0 0  42 0 0  44 0 0  46 0 0  48 0 0  50 0 0  52 0 0  54 0 0  56 0 0  58 0 0  60 0 0  62 0 0  64 0 0  66 0 0  68 0 0  70 0 0  72 0 0  74 0 0  76 0 0  78 0 0  80 0 0  82 0 0  84 0 0  86 0 0  88 0 0  90 0 0  92 0 0  94 0 0  96 0 0  98 0 0  100 0 0  102 0 0  104 0 0  106 0 0  108 0 0  110 0 0  112 0 0  114 0 0  116 0 0  118 0 0  120 0 0  122 0 0  124 0 0  126 0 0  128 0 0  130 0 0  132 0 0  134 0 0  136 0 0  138 0 0  140 0 0  142 0 0  144 0 0  146 0 0  148 0 0  150 0 0  152 0 0  154 0 0  156 0 0  158 0 0  160 0 0  162 0 0  164 0 0  166 0 0  168 0 0  170 0 0  172 0 0  174 0 0  176 0 0  178 0 0  180 0 0  182 0 0  184 0 0  186 0 0  188 0 0  190 0 0  192 0 0  194 0 0  196 0 0  198 0 0  200 0 0  0 2 0  2 2 0  4 2 0  6 2 0  8 2 0  10 2 0  12 2 0  14 2 0  16 2 0  18 2 0  20 2 0  22 2 0  24 2 0  26 2 0  28 2 0  30 2 0  32 2 0  34 2 0  36 2 0  38 2 0  40 2 0  42 2 0  44 2 0  46 2 0  48 2 0  50 2 0  52 2 0  54 2 0  56 2 0  58 2 0  60 2 0  62 2 0  64 2 0  66 2 0  68 2 0  70 2 0  72 2 0  74 2 0  76 2 0  78 2 0  80 2 0  82 2 0  84 2 0  86 2 0  88 2 0  90 2 0  92 2 0  94 2 0  96 2 0  98 2 0  100 2 0  102 2 0  104 2 0  106 2 0  108 2 0  110 2 0  112 2 0  114 2 0  116 2 0  118 2 0  120 2 0  122 2 0  124 2 0  126 2 0  128 2 0  130 2 0  132 2 0  134 2 0  136 2 0  138 2 0  140 2 0  142 2 0  144 2 0  146 2 0  148 2 0  150 2 0  152 2 0  154 2 0  156 2 0  158 2 0  160 2 0  162 2 0  164 2 0  166 2 0  168 2 0  170 2 0  172 2 0  174 2 0  176 2 0  178 2 0  180 2 0  182 2 0  184 2 0  186 2 0  188 2 0  190 2 0  192 2 0  194 2 0  196 2 0  198 2 0  200 2 0  0 4 0  2 4 0  4 4 0  6 4 0  8 4 0  10 4 0  12 4 0  14 4 0  16 4 0  18 4 0  20 4 0  22 4 0  24 4 0  26 4 0  28 4 0  30 4 0  32 4 0  34 4 0  36 4 0  38 4 0  40 4 0  42 4 0  44 4 0  46 4 0  48 4 0  50 4 0  52 4 0  54 4 0  56 4 0  58 4 0  60 4 0  62 4 0  64 4 0  66 4 0  68 4 0  70 4 0  72 4 0  74 4 0  76 4 0  78 4 0  80 4 0  82 4 0  84 4 0  86 4 0  88 4 0  90 4 0  92 4 0  94 4 0  96 4 0  98 4 0  100 4 0  102 4 0  104 4 0  106 4 0  108 4 0  110 4 0  112 4 0  114 4 0  116 4 0  118 4 0  120 4 0  122 4 0  124 4 0  126 4 0  128 4 0  130 4 0  132 4 0  134 4 0  136 4 0  138 4 0  140 4 0  142 4 0  144 4 0  146 4 0  148 4 0  150 4 0  152 4 0  154 4 0  156 4 0  158 4 0  160 4 0  162 4 0  164 4 0  166 4 0  168 4 0  170 4 0  172 4 0  174 4 0  176 4 0  178 4 0  180 4 0  182 4 0  184 4 0  186 4 0  188 4 0  190 4 0  192 4 0  194 4 0  196 4 0  198 4 0  200 4 0  0 6 0  2 6 0  4 6 0  6 6 0  8 6 0  10 6 0  12 6 0  14 6 0  16 6 0  18 6 0  20 6 0  22 6 0  24 6 0  26 6 0  28 6 0  30 6 0  32 6 0  34 6 0  36 6 0  38 6 0  40 6 0  42 6 0  44 6 0  46 6 0  48 6 0  50 6 0  52 6 0  54 6 0  56 6 0  58 6 0  60 6 0  62 6 0  64 6 0  66 6 0  68 6 0  70 6 0  72 6 0  74 6 0  76 6 0  78 6 0  80 6 0  82 6 0  84 6 0  86 6 0  88 6 0  90 6 0  92 6 0  94 6 0  96 6 0  98 6 0  100 6 0  102 6 0  104 6 0  106 6 0  108 6 0  110 6 0  112 6 0  114 6 0  116 6 0  118 6 0  120 6 0  122 6 0  124 6 0  126 6 0  128 6 0  130 6 0  132 6 0  134 6 0  136 6 0  138 6 0  140 6 0  142 6 0  144 6 0  146 6 0  148 6 0  150 6 0  152 6 0  154 6 0  156 6 0  158 6 0  160 6 0  162 6 0  164 6 0  166 6 0  168 6 0  170 6 0  172 6 0  174 6 0  176 6 0  178 6 0  180 6 0  182 6 0  184 6 0  186 6 0  188 6 0  190 6 0  192 6 0  194 6 0  196 6 0  198 6 0  200 6 0  0 8 0  2 8 0  4 8 0  6 8 0  8 8 0  10 8 0  12 8 0  14 8 0  16 8 0  18 8 0  20 8 0  22 8 0  24 8 0  26 8 0  28 8 0  30 8 0  32 8 0  34 8 0  36 8 0  38 8 0  40 8 0  42 8 0  44 8 0  46 8 0  48 8 0  50 8 0  52 8 0  54 8 0  56 8 0  58 8 0  60 8 0  62 8 0  64 8 0  66 8 0  68 8 0  70 8 0  72 8 0  74 8 0  76 8 0  78 8 0  80 8 0  82 8 0  84 8 0  86 8 0  88 8 0  90 8 0  92 8 0  94 8 0  96 8 0  98 8 0  100 8 0  102 8 0  104 8 0  106 8 0  108 8 0  110 8 0  112 8 0  114 8 0  116 8 0  118 8 0  120 8 0  122 8 0  124 8 0  126 8 0  128 8 0  130 8 0  132 8 0  134 8 0  136 8 0  138 8 0  140 8 0  142 8 0  144 8 0  146 8 0  148 8 0  150 8 0  152 8 0  154 8 0  156 8 0  158 8 0  160 8 0  162 8 0  164 8 0  166 8 0  168 8 0  170 8 0  172 8 0  174 8 0  176 8 0  178 8 0  180 8 0  182 8 0  184 8 0  186 8 0  188 8 0  190 8 0  192 8 0  194 8 0  196 8 0  198 8 0  200 8 0  0 10 0  2 10 0  4 10 0  6 10 0  8 10 0  10 10 0  12 10 0  14 10 0  16 10 0  18 10 0  20 10 0  22 10 0  24 10 0  26 10 0  28 10 0  30 10 0  32 10 0  34 10 0  36 10 0  38 10 0  40 10 0  42 10 0  44 10 0  46 10 0  48 10 0  50 10 0  52 10 0  54 10 0  56 10 0  58 10 0  60 10 0  62 10 0  64 10 0  66 10 0  68 10 0  70 10 0  72 10 0  74 10 0  76 10 0  78 10 0  80 10 0  82 10 0  84 10 0  86 10 0  88 10 0  90 10 0  92 10 0  94 10 0  96 10 0  98 10 0  100 10 0  102 10 0  104 10 0  106 10 0  108 10 0  110 10 0  112 10 0  114 10 0  116 10 0  118 10 0  120 10 0  122 10 0  124 10 0  126 10 0  128 10 0  130 10 0  132 10 0  134 10 0  136 10 0  138 10 0  140 10 0  142 10 0  144 10 0  146 10 0  148 10 0  150 10 0  152 10 0  154 10 0  156 10 0  158 10 0  160 10 0  162 10 0  164 10 0  166 10 0  168 10 0  170 10 0  172 10 0  174 10 0  176 10 0  178 10 0  180 10 0  182 10 0  184 10 0  186 10 0  188 10 0  190 10 0  192 10 0  194 10 0  196 10 0  198 10 0  200 10 0  0 12 0  2 12 0  4 12 0  6 12 0  8 12 0  10 12 0  12 12 0  14 12 0  16 12 0  18 12 0  20 12 0  22 12 0  24 12 0  26 12 0  28 12 0  30 12 0  32 12 0  34 12 0  36 12 0  38 12 0  40 12 0  42 12 0  44 12 0  46 12 0  48 12 0  50 12 0  52 12 0  54 12 0  56 12 0  58 12 0  60 12 0  62 12 0  64 12 0  66 12 0  68 12 0  70 12 0  72 12 0  74 12 0  76 12 0  78 12 0  80 12 0  82 12 0  84 12 0  86 12 0  88 12 0  90 12 0  92 12 0  94 12 0  96 12 0  98 12 0  100 12 0  102 12 0  104 12 0  106 12 0  108 12 0  110 12 0  112 12 0  114 12 0  116 12 0  118 12 0  120 12 0  122 12 0  124 12 0  126 12 0  128 12 0  130 12 0  132 12 0  134 12 0  136 12 0  138 12 0  140 12 0  142 12 0  144 12 0  146 12 0  148 12 0  150 12 0  152 12 0  154 12 0  156 12 0  158 12 0  160 12 0  162 12 0  164 12 0  166 12 0  168 12 0  170 12 0  172 12 0  174 12 0  176 12 0  178 12 0  180 12 0  182 12 0  184 12 0  186 12 0  188 12 0  190 12 0  192 12 0  194 12 0  196 12 0  198 12 0  200 12 0  0 14 0  2 14 0  4 14 0  6 14 0  8 14 0  10 14 0  12 14 0  14 14 0  16 14 0  18 14 0  20 14 0  22 14 0  24 14 0  26 14 0  28 14 0  30 14 0  32 14 0  34 14 0  36 14 0  38 14 0  40 14 0  42 14 0  44 14 0  46 14 0  48 14 0  50 14 0  52 14 0  54 14 0  56 14 0  58 14 0  60 14 0  62 14 0  64 14 0  66 14 0  68 14 0  70 14 0  72 14 0  74 14 0  76 14 0  78 14 0  80 14 0  82 14 0  84 14 0  86 14 0  88 14 0  90 14 0  92 14 0  94 14 0  96 14 0  98 14 0  100 14 0  102 14 0  104 14 0  106 14 0  108 14 0  110 14 0  112 14 0  114 14 0  116 14 0  118 14 0  120 14 0  122 14 0  124 14 0  126 14 0  128 14 0  130 14 0  132 14 0  134 14 0  136 14 0  138 14 0  140 14 0  142 14 0  144 14 0  146 14 0  148 14 0  150 14 0  152 14 0  154 14 0  156 14 0  158 14 0  160 14 0  162 14 0  164 14 0  166 14 0  168 14 0  170 14 0  172 14 0  174 14 0  176 14 0  178 14 0  180 14 0  182 14 0  184 14 0  186 14 0  188 14 0  190 14 0  192 14 0  194 14 0  196 14 0  198 14 0  200 14 0  0 16 0  2 16 0  4 16 0  6 16 0  8 16 0  10 16 0  12 16 0  14 16 0  16 16 0  18 16 0  20 16 0  22 16 0  24 16 0  26 16 0  28 16 0  30 16 0  32 16 0  34 16 0  36 16 0  38 16 0  40 16 0  42 16 0  44 16 0  46 16 0  48 16 0  50 16 0  52 16 0  54 16 0  56 16 0  58 16 0  60 16 0  62 16 0  64 16 0  66 16 0  68 16 0  70 16 0  72 16 0  74 16 0  76 16 0  78 16 0  80 16 0  82 16 0  84 16 0  86 16 0  88 16 0  90 16 0  92 16 0  94 16 0  96 16 0  98 16 0  100 16 0  102 16 0  104 16 0  106 16 0  108 16 0  110 16 0  112 16 0  114 16 0  116 16 0  118 16 0  120 16 0  122 16 0  124 16 0  126 16 0  128 16 0  130 16 0  132 16 0  134 16 0  136 16 0  138 16 0  140 16 0  142 16 0  144 16 0  146 16 0  148 16 0  150 16 0  152 16 0  154 16 0  156 16 0  158 16 0  160 16 0  162 16 0  164 16 0  166 16 0  168 16 0  170 16 0  172 16 0  174 16 0  176 16 0  178 16 0  180 16 0  182 16 0  184 16 0  186 16 0  188 16 0  190 16 0  192 16 0  194 16 0  196 16 0  198 16 0  200 16 0  0 18 0  2 18 0  4 18 0  6 18 0  8 18 0  10 18 0  12 18 0  14 18 0  16 18 0  18 18 0  20 18 0  22 18 0  24 18 0  26 18 0  28 18 0  30 18 0  32 18 0  34 18 0  36 18 0  38 18 0  40 18 0  42 18 0  44 18 0  46 18 0  48 18 0  50 18 0  52 18 0  54 18 0  56 18 0  58 18 0  60 18 0  62 18 0  64 18 0  66 18 0  68 18 0  70 18 0  72 18 0  74 18 0  76 18 0  78 18 0  80 18 0  82 18 0  84 18 0  86 18 0  88 18 0  90 18 0  92 18 0  94 18 0  96 18 0  98 18 0  100 18 0  102 18 0  104 18 0  106 18 0  108 18 0  110 18 0  112 18 0  114 18 0  116 18 0  118 18 0  120 18 0  122 18 0  124 18 0  126 18 0  128 18 0  130 18 0  132 18 0  134 18 0  136 18 0  138 18 0  140 18 0  142 18 0  144 18 0  146 18 0  148 18 0  150 18 0  152 18 0  154 18 0  156 18 0  158 18 0  160 18 0  162 18 0  164 18 0  166 18 0  168 18 0  170 18 0  172 18 0  174 18 0  176 18 0  178 18 0  180 18 0  182 18 0  184 18 0  186 18 0  188 18 0  190 18 0  192 18 0  194 18 0  196 18 0  198 18 0  200 18 0  0 20 0  2 20 0  4 20 0  6 20 0  8 20 0  10 20 0  12 20 0  14 20 0  16 20 0  18 20 0  20 20 0  22 20 0  24 20 0  26 20 0  28 20 0  30 20 0  32 20 0  34 20 0  36 20 0  38 20 0  40 20 0  42 20 0  44 20 0  46 20 0  48 20 0  50 20 0  52 20 0  54 20 0  56 20 0  58 20 0  60 20 0  62 20 0  64 20 0  66 20 0  68 20 0  70 20 0  72 20 0  74 20 0  76 20 0  78 20 0  80 20 0  82 20 0  84 20 0  86 20 0  88 20 0  90 20 0  92 20 0  94 20 0  96 20 0  98 20 0  100 20 0  102 20 0  104 20 0  106 20 0  108 20 0  110 20 0  112 20 0  114 20 0  116 20 0  118 20 0  120 20 0  122 20 0  124 20 0  126 20 0  128 20 0  130 20 0  132 20 0  134 20 0  136 20 0  138 20 0  140 20 0  142 20 0  144 20 0  146 20 0  148 20 0  150 20 0  152 20 0  154 20 0  156 20 0
[...]
<PointData  Scalars="f_271-2"> 
<DataArray  type="Float64"  Name="f_271-2"  format="ascii">1.7327353376217367e-06  1.6575603031723552e-06  1.4509307689933136e-06  1.1624850945261051e-06  8.5484006366096089e-07  5.8373108325661288e-07  3.8505179208374706e-07  2.7240436196722689e-07  2.4210670936971200e-07  2.8003385126923386e-07  3.6663929027408416e-07  4.7964132117291680e-07  5.9564334921211979e-07  6.9217124946696875e-07  7.5081115925921676e-07  7.6079206056061668e-07  7.2130967700531199e-07  6.4110037279193543e-07  5.3523025274673188e-07  4.2055387949654139e-07  3.1168032012047190e-07  2.1858062159755384e-07  1.4600346351593102e-07  9.4262765589261773e-08  6.0780983828154023e-08  4.1815536495952574e-08  3.3926106590828526e-08  3.4912699999585867e-08  4.4135580257023212e-08  6.2272309824074039e-08  9.0634981429441378e-08  1.3015913451855659e-07  1.8015153780770229e-07  2.3699054797626863e-07  2.9331924988293524e-07  3.3867366117236845e-07  3.6232666988567854e-07  3.5783224558589027e-07  3.2685216258564154e-07  2.7923531067860324e-07  2.2847157098538536e-07  1.8525438826374105e-07  1.5348238364450719e-07  1.3085761403274571e-07  1.1256256339453855e-07  9.4848874038365984e-08  7.6552938534126163e-08  5.8620815002761073e-08  4.2809079640505151e-08  3.0591788921233132e-08  2.2682981332688247e-08  1.9097987103412594e-08  1.9475424565927422e-08  2.3325804710838771e-08  2.9671156307460931e-08  3.4547352662196446e-08  2.6232229731858340e-08  7.3760020949348604e-09  1.2521752667968553e-09  2.0343296278091165e-10  3.1859283068828032e-11  2.1130358012838340e-10  2.0608718421703619e-09  2.3306779414565166e-09  3.3875602168189127e-10  1.6596010543934290e-11  1.4874101843616062e-12  4.4139566626643367e-12  9.1183091314105303e-11  1.1936066767740741e-09  1.2444729134663825e-08  7.2886264654542539e-08  1.3308712989791787e-07  1.2710242177630142e-07  9.5289939821566775e-08  6.4309921275326633e-08  4.1817925669725986e-08  2.8137669459924402e-08  2.1310369441342582e-08  1.9601897714732588e-08  2.2868610300102353e-08  3.3091890070549435e-08  5.4099826911081375e-08  9.0452500070959890e-08  1.4554411596878995e-07  2.1918430088151334e-07  3.0528588933494019e-07  3.9060957298145688e-07  4.5528380904991955e-07  4.7441804013147203e-07  4.1696655024905213e-07  2.4706692179722561e-07  4.9729590443271682e-08  1.9160235675945598e-09  2.4709925897134837e-11  -4.9808212601053839e-13  4.0552580268822476e-14  1.6437820392037726e-15  1.5810123376252471e-15  3.2998039264254967e-15  3.9289076911254724e-15  1.6661426942408454e-06  1.5946949795656798e-06  1.3980756463506608e-06  1.1229686503166896e-06  8.2857195044918199e-07  5.6800762293610113e-07  3.7595143965995551e-07  2.6603262135527424e-07  2.3532646525897486e-07  2.7071581483261103e-07  3.5363846027751495e-07  4.6268285420916419e-07  5.7521077873145640e-07  6.6939872675189287e-07  7.2732016972321929e-07  7.3841956065657453e-07  7.0175251599668452e-07  6.2558416683026036e-07  5.2432143522790527e-07  4.1416423401046944e-07  3.0922611109386115e-07  2.1921241493711666e-07  1.4882672247630527e-07  9.8498569052973625e-08  6.5847427997643791e-08  4.7334061030641928e-08  3.9671574386986672e-08  4.0732151645136453e-08  4.9859914652640372e-08  6.7640634004920493e-08  9.5246760534941893e-08  1.3346823857884580e-07  1.8151953327324788e-07  2.3581649851113621e-07  2.8924241703607206e-07  3.3179122654321846e-07  3.5330444008041215e-07  3.4778298547956314e-07  3.1697256315456926e-07  2.7037642035708410e-07  2.2090377703887835e-07  1.7876286266384495e-07  1.4768706541531152e-07  1.2551563956960974e-07  1.0768351157567219e-07  9.0625552574833771e-08  7.3219618390646361e-08  5.6344938859362762e-08  4.1657161150418191e-08  3.0553688665824856e-08  2.3717221906832621e-08  2.1166581979598135e-08  2.2554613750642413e-08  2.7403015348127678e-08  3.4789298130965922e-08  4.1114451331256151e-08  3.4630821234276462e-08  1.2349906416396786e-08  2.4326848524799481e-09  5.7230524171101674e-10  2.2854499526981240e-10  9.5171805891186018e-10  6.9373518084417305e-09  6.3702222849299809e-09  8.6239760999884385e-10  6.1604666500481085e-11  1.0189673155725136e-11  2.2035261805014770e-11  2.1003520383049880e-10  1.9341039430018731e-09  1.7165672297188376e-08  8.4580069068009578e-08  1.3880370419914400e-07  1.2946088238333680e-07  9.7568472241536218e-08  6.7034777601381219e-08  4.4796647009006016e-08  3.1106514714520247e-08  2.4100463423549355e-08  2.2142243468283219e-08  2.5118353776205962e-08  3.4947390162594857e-08  5.5312934765825118e-08  9.0594692336739450e-08  1.4404851040092123e-07  2.1548748540756138e-07  2.9906558971950709e-07  3.8207819482199704e-07  4.4550025598117346e-07  4.6576506747741145e-07  4.1478372979272039e-07  2.6095064533472643e-07  6.4478145305407271e-08  3.4566227769118113e-09  7.8287766590867169e-11  1.6232683482462397e-13  2.3334259243225759e-13  -8.3232464147009361e-15  4.7225923285708488e-15  4.0401859393731694e-15  4.7051789113644003e-15  1.4817099037188972e-06  1.4203845196585665e-06  1.2510193866668472e-06  1.0124130628471208e-06  7.5454687093647806e-07  5.2336885591742110e-07  3.5006513599492336e-07  2.4814702467593913e-07  2.1662028510989058e-07  2.4506846040739631e-07  3.1764883722424663e-07  4.1542044219674210e-07  5.1794213167719500e-07  6.0528939169010040e-07  6.6095737425336191e-07  6.7502801518414737e-07  6.4618575145354033e-07  5.8139171058005319e-07  4.9321488043929297e-07  3.9601596261510202e-07  3.0249809909492661e-07  2.2158615458425401e-07  1.5781381066153147e-07  1.1188993390396767e-07  8.1944872246290694e-08  6.4974289233613645e-08  5.8094758246781118e-08  5.9365008250049511e-08  6.8081512754669342e-08  8.4586001649170952e-08  1.0968976738168279e-07  1.4382152291503886e-07  1.8599679142186482e-07  2.3279972646945057e-07  2.7783702836245723e-07  3.1240463654927863e-07  3.2791613132411640e-07  3.1957604459818245e-07  2.8931855728058120e-07  2.4565848219693388e-07  1.9988404692942027e-07  1.6085319039084270e-07  1.3182828776195451e-07  1.1100791536420902e-07  9.4509634553782875e-08  7.9274996598428683e-08  6.4314615713961911e-08  5.0353090021092579e-08  3.8798824885446698e-08  3.0860600186199897e-08  2.7141790645505103e-08  2.7658245405836580e-08  3.2069309852136179e-08  3.9876381820601038e-08  5.0230003278194913e-08  6.0404795904905919e-08  6.0852060718459051e-08  3.7662238652760084e-08  1.2788863255831588e-08  4.6240476814818010e-09  3.7812619632515592e-09  1.2064248834539283e-08  3.7627453743473977e-08  2.8928873281291155e-08  4.9809385002059658e-09  6.3482220498635864e-10  2.2354892602952968e-10  3.1149880397715050e-10  1.1843415023878710e-09  6.4444997989542983e-09  3.9390586608759455e-08  1.1763672746785456e-07  1.5231016367579772e-07  1.3593136589970487e-07  1.0468764594450771e-07  7.5858255234125666e-08  5.4640894769609258e-08  4.1114481346234125e-08  3.3674796526216423e-08  3.0959690689637008e-08  3.2952793711275080e-08  4.1420317129637931e-08  5.9669732422673409e-08  9.1602317110714923e-08  1.4010439081255035e-07  2.0500258164796558e-07  2.8111376045262348e-07  3.5720172049544158e-07  4.1654370658083251e-07  4.3898117713930834e-07  4.0294856852791052e-07  2.8765786787812278e-07  1.1188745314580790e-07  1.3384624674636320e-08  5.4580553235323397e-10  3.7480161037457593e-11  1.0094630688647392e-12  1.0203905802833189e-13  -1.6874105100480584e-14  -7.3916995819502210e-15  -4.8690829410394813e-15  1.2196615907979666e-06  1.1721750719183606e-06  1.0402575348807168e-06  8.5230291895511157e-07  6.4588906405353880e-07  4.5696469335506357e-07  3.1145683898421875e-07  2.2218350743998130e-07  1.9042083751514027e-07  2.0931884088736082e-07  2.6685810455969740e-07  3.4775662710866155e-07  4.3495292244833165e-07  5.1149427273394534e-07  5.6311491597568619e-07  5.8094382094495975e-07  5.6321282935226334e-07  5.1505413902300004e-07  4.4640224359336300e-07  3.6893417679988499e-07  2.9323844591060734e-07  2.2699612324882906e-07  1.7435802802319052e-07  1.3629425958783383e-07  1.1153765397539535e-07  9.7736814753720777e-08  9.2496706008580950e-08  9.4087886797665153e-08  1.0172872001301438e-07  1.1545561781268196e-07  1.3566369852926992e-07  1.6241766839598833e-07  1.9463935323249994e-07  2.2935422461962058e-07  2.6136897364203758e-07  2.8392145923429182e-07  2.9064193169044448e-07  2.7833989574714831e-07  2.4908931804901619e-07  2.0991213788861761e-07  1.6975584047870957e-07  1.3553585912647708e-07  1.0979825334259900e-07  9.1185563843969014e-08  7.6735773666475411e-08  6.4111561071297709e-08  5.2569907088658787e-08  4.2709028831293412e-08  3.5682573264927993e-08  3.2501021204769783e-08  3.3676408370756427e-08  3.9181606167038881e-08  4.8584765818096531e-08  6.1202573864020638e-08  7.6060031936347172e-08  9.1173766068375667e-08  1.0114215700226181e-07  9.4101474984877794e-08  6.6138840983233234e-08  4.3417688609911161e-08  4.4525556902031983e-08  7.5355495514661571e-08  1.1143103962760497e-07  9.0387676713915662e-08  3.1357850491307823e-08  7.1508894289839613e-09  3.0358320384330307e-09  3.4400204905802157e-09  8.4603055864164064e-09  3.1354540411354415e-08  9.6116295234673148e-08  1.5697934418828303e-07  1.6616952017343904e-07  1.4550136942923343e-07  1.1754634768392929e-07  9.2602057176085688e-08  7.3876315199154953e-08  6.1223657232671897e-08  5.3380304915288857e-08  4.9375850068778463e-08  4.9376774261861275e-08  5.5010192777924326e-08  6.9140548300090960e-08  9.5074298481165858e-08  1.3523435311352747e-07  1.8949545952515224e-07  2.5361330012160086e-07  3.1840757820420186e-07  3.7032358539938618e-07  3.9351088958651052e-07  3.7284270592979772e-07  2.9755114237628849e-07  1.7115816601097540e-07  5.0028818529073692e-08  5.9995555036877769e-09  4.5858291181274695e-10  4.2795229543047092e-11  3.9484490264046751e-12  5.9223261346916869e-13  2.0275939305517421e-13  1.5666760975643544e-13  9.3074468059668041e-07  8.9767452731465646e-07  8.0505632064616478e-07  6.7103950621726635e-07  5.2062368052610388e-07  3.7908986554307007e-07  2.6614456623081941e-07  1.9302228530033567e-07  1.6271911974741816e-07  1.7182527383503806e-07  2.1240382027769431e-07  2.7338570451351692e-07  3.4181540845227990e-07  4.0446295315027193e-07  4.4993414337895074e-07  4.7081938912189104e-07  4.6505613854336288e-07  4.3586626190560140e-07  3.9028397441652833e-07  3.3692924615585544e-07  2.8387351945872707e-07  2.3718207786493607e-07  2.0030852114973825e-07  1.7422417965532422e-07  1.5804017667885467e-07  1.4985595502853795e-07  1.4759045675958900e-07  1.4960538265188048e-07  1.5500840853267653e-07  1.6361206206209367e-07  1.7559762319558424e-07  1.9097726595074108e-07  2.0897471013728944e-07  2.2749857407785147e-07  2.4298610734968558e-07  2.5095785525827503e-07  2.4743278713674149e-07  2.3078930546519397e-07  2.0302522768836084e-07  1.6935646124982054e-07  1.3607080577489164e-07  1.0787940099094352e-07  8.6436903525236065e-08  7.0750730646426411e-08  5.8793279170307080e-08  4.9040210583206161e-08  4.1137961665133514e-08  3.5719993086446382e-08  3.3832562331747404e-08  3.6390286669780558e-08  4.3841423221525368e-08  5.6040267129776360e-08  7.2267951618863000e-08  9.1347667862227449e-08  1.1177048598668639e-07  1.3163103377485265e-07  1.4806025598267986e-07  1.5647685800496583e-07  1.5293144358873793e-07  1.4459518568051960e-07  1.4909702702939871e-07  1.6905192540112676e-07  1.8268838550463954e-07  1.6466772192442417e-07  1.0914842618063262e-07  5.4432423306673837e-08  3.1755594000429498e-08  3.2282795841208335e-08  5.4306930880580417e-08  1.0427432242387400e-07  1.5786531696969994e-07  1.8093240041258741e-07  1.7596151502138751e-07  1.5803295063098219e-07  1.3766516500027584e-07  1.1988511356837229e-07  1.0608297842158624e-07  9.5775476748715519e-08  8.7962167239050764e-08  8.2086794050441480e-08  7.8612106950755642e-08  7.9195310611197020e-08  8.6440193790452096e-08  1.0321915133162507e-07  1.3161665172021593e-07  1.7165825497692956e-07  2.2015535353593128e-07  2.7014909259427880e-07  3.1143065902898498e-07  3.3233937740706232e-07  3.2260486564037370e-07  2.7674908395723119e-07  1.9802891980416048e-07  1.0433939520668370e-07  3.3722417768836076e-08  6.5181249348313201e-09  1.0054119845948289e-09  1.5925993352308579e-10  2.8322218295453932e-11  6.9127309153235280e-12  3.7736571610445728e-12  6.6060578543308942e-07  6.4002535699176598e-07  5.8179758039240812e-07  4.9592135708561582e-07  3.9696828579447997e-07  3.0076165509893707e-07  2.2077906198900698e-07  1.6581760263818082e-07  1.3948020568377288e-07  1.4086325553414110e-07  1.6555012540979552e-07  2.0650608768028600e-07  2.5500200121651470e-07  3.0183407466957505e-07  3.3887127554927189e-07  3.6059449883148956e-07  3.6508431194243946e-07  3.5405290183094489e-07  3.3192982485279280e-07  3.0440798565061374e-07  2.7698277794401472e-07  2.5386955465121196e-07  2.3744535740789437e-07  2.2818924195708818e-07  2.2502021887804238e-07  2.2590223255921692e-07  2.2855981787197722e-07  2.3112663017426592e-07  2.3255953346838387e-07  2.3271480838681487e-07  2.3208778110667073e-07  2.3131886558313032e-07  2.3063096842548383e-07  2.2938952807769619e-07  2.2598896865366180e-07  2.1824018319549378e-07  2.0427002503683098e-07  1.8361023233254567e-07  1.5784161190488997e-07  1.3023399496448410e-07  1.0442848337511434e-07  8.2938076321602722e-08  6.6415458534049479e-08  5.4042474799269481e-08  4.4586300690631062e-08  3.7348830581727992e-08  3.2536759812178231e-08  3.1074434664531933e-08  3.4150228957282575e-08  4.2757361636222795e-08  5.7336713007705112e-08  7.7533191054510198e-08  1.0208881855867970e-07  1.2893694644053045e-07  1.5552414040249588e-07  1.7925222624835704e-07  1.9783984507067841e-07  2.0960329993980733e-07  2.1423462124046703e-07  2.1422720512009371e-07  2.1416639847601838e-07  2.1530527758551902e-07  2.1286379132904403e-07  1.9987688517329494e-07  1.7289031468542182e-07  1.3884042187434395e-07  1.1558982517733690e-07  1.1465787528900322e-07  1.3425105162299737e-07  1.6148311441589567e-07  1.8034363621422815e-07  1.8593457687928828e-07  1.8220339448991878e-07  1.7461789274966078e-07  1.6691955720139550e-07  1.6051571036408405e-07  1.5505867310192744e-07  1.4939341835584418e-07  1.4247906911134785e-07  1.3407305104983887e-07  1.2508168428907900e-07  1.1755048285474000e-07  1.1430251954733856e-07  1.1826394815367362e-07  1.3156694969714338e-07  1.5459308748128532e-07  1.8520073760118827e-07  2.1844054796069438e-07  2.4704475606923818e-07  2.6282064680874439e-07  2.5880149884812318e-07  2.3171146472531052e-07  1.8404367720869393e-07  1.2487878062773983e-07  6.8388854414960955e-08  2.8805144557248998e-08  9.5368898901851969e-09  2.8609986879670499e-09  1.0127429713084820e-09  5.3723875801296768e-10  4.4137604409296589e-10  4.3975950327845246e-07  4.2839029582638514e-07  3.9588201819115594e-07  3.4699794704920911e-07  2.8918393082182997e-07  2.3117939233511083e-07  1.8107748713801282e-07  1.4475120823716167e-07  1.2520058569271534e-07  1.2267225628312357e-07  1.3510901818102532e-07  1.5867135046062796e-07  1.8835163948378311e-07  2.1878322712523383e-07  2.4521599162705630e-07  2.6443949466892010e-07  2.7535036988389339e-07  2.7896094623582752e-07  2.7787159795265961e-07  2.7542685127347722e-07  2.7482743853767709e-07  2.7839098458250770e-07  2.8705030004317459e-07  3.0013413874250681e-07  3.1548217723077108e-07  3.2993174163427871e-07  3.4012044284216443e-07  3.4339653649957034e-07  3.3852088717411676e-07  3.2588996942912792e-07  3.0721303423277228e-07  2.8481479317242599e-07  2.6086334828615191e-07  2.3680039051355175e-07  2.1314177909541449e-07  1.8969053963695461e-07  1.6606652742552622e-07  1.4230138421722781e-07  1.1915291713446249e-07  9.7901428991403468e-08  7.9725173075597214e-08  6.5086862588643768e-08  5.3584578778082451e-08  4.4372525693081805e-08  3.6842454063282314e-08  3.1125107950053429e-08  2.8171984091230978e-08  2.9474256912055913e-08  3.6624636445624399e-08  5.0877174942171405e-08  7.2735127023845638e-08  1.0156368004252261e-07  1.3533142036049044e-07  1.7069692433946542e-07  2.0358539070471197e-07  2.3013217526468923e-07  2.4762743306908380e-07  2.5511686711267422e-07  2.5354981943245629e-07  2.4544951662360181e-07  2.3392352754261548e-07  2.2121668801067605e-07  2.0782056608603153e-07  1.9302959222198346e-07  1.7668115138569342e-07  1.6088440720828738e-07  1.5005213442765837e-07  1.4792833202395596e-07  1.5376084268031426e-07  1.6310390001122103e-07  1.7220410737293544e-07  1.8015939357446049e-07  1.8800846559936154e-07  1.9692385701136372e-07  2.0695606574995920e-07  2.1671730534524628e-07  2.2383414801439617e-07  2.2583170452793204e-07  2.2106293855589207e-07  2.0936452178131844e-07  1.9227164065723368e-07  1.7277495857208956e-07  1.5469673829551961e-07  1.4181879823576147e-07  1.3694512540486504e-07  1.4110962837187870e-07  1.5311570334612343e-07  1.6953683050304848e-07  1.8525035316461363e-07  1.9450686381063458e-07  1.9241157350881966e-07  1.7650401591445092e-07  1.4791974334607705e-07  1.1150553238381717e-07  7.4449622149545626e-08  4.3601015556522778e-08  2.2735198259185370e-08  1.1380368683118845e-08  6.3620288922349746e-09  4.5335493957436451e-09  4.1008090004570869e-09  2.8158394955994282e-07  2.7586120501026960e-07  2.5947973242693301e-07  2.3479911944435948e-07  2.0554585604135319e-07  1.7613611023515150e-07  1.5068097986587602e-07  1.3214736548571238e-07  1.2199425062890101e-07  1.2024102101447910e-07  1.2575141876670755e-07  1.3659590989880450e-07  1.5048251123593797e-07  1.6525837994815511e-07  1.7940165350287758e-07  1.9236241042556922e-07  2.0464400312049406e-07  2.1761550574847141e-07  2.3313812613688348e-07  2.5311519672966496e-07  2.7903091956933746e-07  3.1147956674471666e-07  3.4968423695007356e-07  3.9110311710614967e-07  4.3136320711288239e-07  4.6479853125195731e-07  4.8566912778974969e-07  4.8973772115310150e-07  4.7555159734753070e-07  4.4482557661260180e-07  4.0177656780246909e-07  3.5179450902795733e-07  3.0007220980706774e-07  2.5067143946809236e-07  2.0618012217375521e-07  1.6785303621147468e-07  1.3600940278561836e-07  1.1044754370507480e-07  9.0692064665065438e-08  7.6014820144699556e-08  6.5341579459643658e-08  5.7266615283344994e-08  5.0335865322093888e-08  4.3545287038124310e-08  3.6804721275895722e-08  3.1106354253256738e-08  2.8314818942190925e-08  3.0708427733758411e-08  4.0475999326468641e-08  5.9263746776526314e-08  8.7703722403981644e-08  1.2486190599597538e-07  1.6779114836028129e-07  2.1161063902858343e-07  2.5040660024065665e-07  2.7875403661836011e-07  2.9321352814115751e-07  2.9314991492155814e-07  2.8061312404868859e-07  2.5945664539100192e-07  2.3409173008238846e-07  2.0831911238292664e-07  1.8463905727755820e-07  1.6426294338960530e-07  1.4770083514137021e-07  1.3544653641631306e-07  1.2820202245369226e-07  1.2649281239742415e-07  1.3025086959018113e-07  1.3905708010913397e-07  1.5279438755141873e-07  1.7184593555936499e-07  1.9652937530338492e-07  2.2617708192757657e-07  2.5844841713624320e-07  2.8928759195546636e-07  3.1365241919298724e-07  3.2680298883246909e-07  3.2567531853479823e-07  3.0982638559732655e-07  2.8164314339319401e-07  2.4579778282823738e-07  2.0814217945887793e-07  1.7434899854386891e-07  1.4866404249328375e-07  1.3309773625710959e-07  1.2721383994985509e-07  1.2845972677299243e-07  1.3287247372116813e-07  1.3601428038555259e-07  1.3402475894693911e-07  1.2462591682613755e-07  1.0780438944386950e-07  8.5849947315874346e-08  6.2576024300034699e-08  4.1917275601442265e-08  2.6508382756794095e-08  1.6964227049176422e-08  1.2179061478235329e-08  1.0325913458636049e-08  9.8963052449759104e-09  1.8604042968535576e-07  1.8278951376517755e-07  1.7387249669119626e-07  1.6151487310518009e-07  1.4860151257660272e-07  1.3779209057855673e-07  1.3082245824896927e-07  1.2821244699893278e-07  1.2938277472699079e-07  1.3301667199202363e-07  1.3749579819844247e-07  1.4134784047456448e-07  1.4370516557964886e-07  1.4470632007490256e-07  1.4567564601622653e-07  1.4895066196931460e-07  1.5740307353646074e-07  1.7386088595083689e-07  2.0064525673386576e-07  2.3929450221219191e-07  2.9037013951985186e-07  3.531434