<?xml version="1.0"?>
<VTKFile type="UnstructuredGrid"  version="0.1"  >
<UnstructuredGrid>
<Piece  NumberOfPoints="20201" NumberOfCells="40000">
<Points>
<DataArray  type="Float64"  NumberOfComponents="3"  format="ascii">0 0 0  2 0 0  4 0 0  6 0 0  8 0 0  10 0 0  12 0 0  14 0 0  16 0 0  18 0 0  20 0 0  22 0 0  24 0 0  26 0 0  28 0 0  30 0 0  32 0 0  34 0 0  36 0 0  38 0 0  40 0 0  42 0 0  44 0 0  46 0 0  48 0 0  50 0 0  52 0 0  54 0 0  56 0 0  58 0 0  60 0 0  62 0 0  64 0 0  66 0 0  68 0 0  70 0 0  72 0 0  74 0 0  76 0 0  78 0 0  80 0 0  82 0 0  84 0 0  86 0 0  88 0 0  90 0 0  92 0 0  94 0 0  96 0 0  98 0 0  100 0 0  102 0 0  104 0 0  106 0 0  108 0 0  110 0 0  112 0 0  114 0 0  116 0 0  118 0 0  120 0 0  122 0 0  124 0 0  126 0 0  128 0 0  130 0 0  132 0 0  134 0 0  136 0 0  138 0 0  140 0 0  142 0 0  144 0 0  146 0 0  148 0 0  150 0 0  152 0 0  154 0 0  156 0 0  158 0 0  160 0 0  162 0 0  164 0 0  166 0 0  168 0 0  170 0 0  172 0 0  174 0 0  176 0 0  178 0 0  180 0 0  182 0 0  184 0 0  186 0 0  188 0 0  190 0 0  192 0 0  194 0 0  196 0 0  198 0 0  200 0 0  0 2 0  2 2 0  4 2 0  6 2 0  8 2 0  10 2 0  12 2 0  14 2 0  16 2 0  18 2 0  20 2 0  22 2 0  24 2 0  26 2 0  28 2 0  30 2 0  32 2 0  34 2 0  36 2 0  38 2 0  40 2 0  42 2 0  44 2 0  46 2 0  48 2 0  50 2 0  52 2 0  54 2 0  56 2 0  58 2 0  60 2 0  62 2 0  64 2 0  66 2 0  68 2 0  70 2 0  72 2 0  74 2 0  76 2 0  78 2 0  80 2 0  82 2 0  84 2 0  86 2 0  88 2 0  90 2 0  92 2 0  94 2 0  96 2 0  98 2 0  100 2 0  102 2 0  104 2 0  106 2 0  108 2 0  110 2 0  112 2 0  114 2 0  116 2 0  118 2 0  120 2 0  122 2 0  124 2 0  126 2 0  128 2 0  130 2 0  132 2 0  134 2 0  136 2 0  138 2 0  140 2 0  142 2 0  144 2 0  146 2 0  148 2 0  150 2 0  152 2 0  154 2 0  156 2 0  158 2 0  160 2 0  162 2 0  164 2 0  166 2 0  168 2 0  170 2 0  172 2 0  174 2 0  176 2 0  178 2 0  180 2 0  182 2 0  184 2 0  186 2 0  188 2 0  190 2 0  192 2 0  194 2 0  196 2 0  198 2 0  200 2 0  0 4 0  2 4 0  4 4 0  6 4 0  8 4 0  10 4 0  12 4 0  14 4 0  16 4 0  18 4 0  20 4 0  22 4 0  24 4 0  26 4 0  28 4 0  30 4 0  32 4 0  34 4 0  36 4 0  38 4 0  40 4 0  42 4 0  44 4 0  46 4 0  48 4 0  50 4 0  52 4 0  54 4 0  56 4 0  58 4 0  60 4 0  62 4 0  64 4 0  66 4 0  68 4 0  70 4 0  72 4 0  74 4 0  76 4 0  78 4 0  80 4 0  82 4 0  84 4 0  86 4 0  88 4 0  90 4 0  92 4 0  94 4 0  96 4 0  98 4 0  100 4 0  102 4 0  104 4 0  106 4 0  108 4 0  110 4 0  112 4 0  114 4 0  116 4 0  118 4 0  120 4 0  122 4 0  124 4 0  126 4 0  128 4 0  130 4 0  132 4 0  134 4 0  136 4 0  138 4 0  140 4 0  142 4 0  144 4 0  146 4 0  148 4 0  150 4 0  152 4 0  154 4 0  156 4 0  158 4 0  160 4 0  162 4 0  164 4 0  166 4 0  168 4 0  170 4 0  172 4 0  174 4 0  176 4 0  178 4 0  180 4 0  182 4 0  184 4 0  186 4 0  188 4 0  190 4 0  192 4 0  194 4 0  196 4 0  198 4 0  200 4 0  0 6 0  2 6 0  4 6 0  6 6 0  8 6 0  10 6 0  12 6 0  14 6 0  16 6 0  18 6 0  20 6 0  22 6 0  24 6 0  26 6 0  28 6 0  30 6 0  32 6 0  34 6 0  36 6 0  38 6 0  40 6 0  42 6 0  44 6 0  46 6 0  48 6 0  50 6 0  52 6 0  54 6 0  56 6 0  58 6 0  60 6 0  62 6 0  64 6 0  66 6 0  68 6 0  70 6 0  72 6 0  74 6 0  76 6 0  78 6 0  80 6 0  82 6 0  84 6 0  86 6 0  88 6 0  90 6 0  92 6 0  94 6 0  96 6 0  98 6 0  100 6 0  102 6 0  104 6 0  106 6 0  108 6 0  110 6 0  112 6 0  114 6 0  116 6 0  118 6 0  120 6 0  122 6 0  124 6 0  126 6 0  128 6 0  130 6 0  132 6 0  134 6 0  136 6 0  138 6 0  140 6 0  142 6 0  144 6 0  146 6 0  148 6 0  150 6 0  152 6 0  154 6 0  156 6 0  158 6 0  160 6 0  162 6 0  164 6 0  166 6 0  168 6 0  170 6 0  172 6 0  174 6 0  176 6 0  178 6 0  180 6 0  182 6 0  184 6 0  186 6 0  188 6 0  190 6 0  192 6 0  194 6 0  196 6 0  198 6 0  200 6 0  0 8 0  2 8 0  4 8 0  6 8 0  8 8 0  10 8 0  12 8 0  14 8 0  16 8 0  18 8 0  20 8 0  22 8 0  24 8 0  26 8 0  28 8 0  30 8 0  32 8 0  34 8 0  36 8 0  38 8 0  40 8 0  42 8 0  44 8 0  46 8 0  48 8 0  50 8 0  52 8 0  54 8 0  56 8 0  58 8 0  60 8 0  62 8 0  64 8 0  66 8 0  68 8 0  70 8 0  72 8 0  74 8 0  76 8 0  78 8 0  80 8 0  82 8 0  84 8 0  86 8 0  88 8 0  90 8 0  92 8 0  94 8 0  96 8 0  98 8 0  100 8 0  102 8 0  104 8 0  106 8 0  108 8 0  110 8 0  112 8 0  114 8 0  116 8 0  118 8 0  120 8 0  122 8 0  124 8 0  126 8 0  128 8 0  130 8 0  132 8 0  134 8 0  136 8 0  138 8 0  140 8 0  142 8 0  144 8 0  146 8 0  148 8 0  150 8 0  152 8 0  154 8 0  156 8 0  158 8 0  160 8 0  162 8 0  164 8 0  166 8 0  168 8 0  170 8 0  172 8 0  174 8 0  176 8 0  178 8 0  180 8 0  182 8 0  184 8 0  186 8 0  188 8 0  190 8 0  192 8 0  194 8 0  196 8 0  198 8 0  200 8 0  0 10 0  2 10 0  4 10 0  6 10 0  8 10 0  10 10 0  12 10 0  14 10 0  16 10 0  18 10 0  20 10 0  22 10 0  24 10 0  26 10 0  28 10 0  30 10 0  32 10 0  34 10 0  36 10 0  38 10 0  40 10 0  42 10 0  44 10 0  46 10 0  48 10 0  50 10 0  52 10 0  54 10 0  56 10 0  58 10 0  60 10 0  62 10 0  64 10 0  66 10 0  68 10 0  70 10 0  72 10 0  74 10 0  76 10 0  78 10 0  80 10 0  82 10 0  84 10 0  86 10 0  88 10 0  90 10 0  92 10 0  94 10 0  96 10 0  98 10 0  100 10 0  102 10 0  104 10 0  106 10 0  108 10 0  110 10 0  112 10 0  114 10 0  116 10 0  118 10 0  120 10 0  122 10 0  124 10 0  126 10 0  128 10 0  130 10 0  132 10 0  134 10 0  136 10 0  138 10 0  140 10 0  142 10 0  144 10 0  146 10 0  148 10 0  150 10 0  152 10 0  154 10 0  156 10 0  158 10 0  160 10 0  162 10 0  164 10 0  166 10 0  168 10 0  170 10 0  172 10 0  174 10 0  176 10 0  178 10 0  180 10 0  182 10 0  184 10 0  186 10 0  188 10 0  190 10 0  192 10 0  194 10 0  196 10 0  198 10 0  200 10 0  0 12 0  2 12 0  4 12 0  6 12 0  8 12 0  10 12 0  12 12 0  14 12 0  16 12 0  18 12 0  20 12 0  22 12 0  24 12 0  26 12 0  28 12 0  30 12 0  32 12 0  34 12 0  36 12 0  38 12 0  40 12 0  42 12 0  44 12 0  46 12 0  48 12 0  50 12 0  52 12 0  54 12 0  56 12 0  58 12 0  60 12 0  62 12 0  64 12 0  66 12 0  68 12 0  70 12 0  72 12 0  74 12 0  76 12 0  78 12 0  80 12 0  82 12 0  84 12 0  86 12 0  88 12 0  90 12 0  92 12 0  94 12 0  96 12 0  98 12 0  100 12 0  102 12 0  104 12 0  106 12 0  108 12 0  110 12 0  112 12 0  114 12 0  116 12 0  118 12 0  120 12 0  122 12 0  124 12 0  126 12 0  128 12 0  130 12 0  132 12 0  134 12 0  136 12 0  138 12 0  140 12 0  142 12 0  144 12 0  146 12 0  148 12 0  150 12 0  152 12 0  154 12 0  156 12 0  158 12 0  160 12 0  162 12 0  164 12 0  166 12 0  168 12 0  170 12 0  172 12 0  174 12 0  176 12 0  178 12 0  180 12 0  182 12 0  184 12 0  186 12 0  188 12 0  190 12 0  192 12 0  194 12 0  196 12 0  198 12 0  200 12 0  0 14 0  2 14 0  4 14 0  6 14 0  8 14 0  10 14 0  12 14 0  14 14 0  16 14 0  18 14 0  20 14 0  22 14 0  24 14 0  26 14 0  28 14 0  30 14 0  32 14 0  34 14 0  36 14 0  38 14 0  40 14 0  42 14 0  44 14 0  46 14 0  48 14 0  50 14 0  52 14 0  54 14 0  56 14 0  58 14 0  60 14 0  62 14 0  64 14 0  66 14 0  68 14 0  70 14 0  72 14 0  74 14 0  76 14 0  78 14 0  80 14 0  82 14 0  84 14 0  86 14 0  88 14 0  90 14 0  92 14 0  94 14 0  96 14 0  98 14 0  100 14 0  102 14 0  104 14 0  106 14 0  108 14 0  110 14 0  112 14 0  114 14 0  116 14 0  118 14 0  120 14 0  122 14 0  124 14 0  126 14 0  128 14 0  130 14 0  132 14 0  134 14 0  136 14 0  138 14 0  140 14 0  142 14 0  144 14 0  146 14 0  148 14 0  150 14 0  152 14 0  154 14 0  156 14 0  158 14 0  160 14 0  162 14 0  164 14 0  166 14 0  168 14 0  170 14 0  172 14 0  174 14 0  176 14 0  178 14 0  180 14 0  182 14 0  184 14 0  186 14 0  188 14 0  190 14 0  192 14 0  194 14 0  196 14 0  198 14 0  200 14 0  0 16 0  2 16 0  4 16 0  6 16 0  8 16 0  10 16 0  12 16 0  14 16 0  16 16 0  18 16 0  20 16 0  22 16 0  24 16 0  26 16 0  28 16 0  30 16 0  32 16 0  34 16 0  36 16 0  38 16 0  40 16 0  42 16 0  44 16 0  46 16 0  48 16 0  50 16 0  52 16 0  54 16 0  56 16 0  58 16 0  60 16 0  62 16 0  64 16 0  66 16 0  68 16 0  70 16 0  72 16 0  74 16 0  76 16 0  78 16 0  80 16 0  82 16 0  84 16 0  86 16 0  88 16 0  90 16 0  92 16 0  94 16 0  96 16 0  98 16 0  100 16 0  102 16 0  104 16 0  106 16 0  108 16 0  110 16 0  112 16 0  114 16 0  116 16 0  118 16 0  120 16 0  122 16 0  124 16 0  126 16 0  128 16 0  130 16 0  132 16 0  134 16 0  136 16 0  138 16 0  140 16 0  142 16 0  144 16 0  146 16 0  148 16 0  150 16 0  152 16 0  154 16 0  156 16 0  158 16 0  160 16 0  162 16 0  164 16 0  166 16 0  168 16 0  170 16 0  172 16 0  174 16 0  176 16 0  178 16 0  180 16 0  182 16 0  184 16 0  186 16 0  188 16 0  190 16 0  192 16 0  194 16 0  196 16 0  198 16 0  200 16 0  0 18 0  2 18 0  4 18 0  6 18 0  8 18 0  10 18 0  12 18 0  14 18 0  16 18 0  18 18 0  20 18 0  22 18 0  24 18 0  26 18 0  28 18 0  30 18 0  32 18 0  34 18 0  36 18 0  38 18 0  40 18 0  42 18 0  44 18 0  46 18 0  48 18 0  50 18 0  52 18 0  54 18 0  56 18 0  58 18 0  60 18 0  62 18 0  64 18 0  66 18 0  68 18 0  70 18 0  72 18 0  74 18 0  76 18 0  78 18 0  80 18 0  82 18 0  84 18 0  86 18 0  88 18 0  90 18 0  92 18 0  94 18 0  96 18 0  98 18 0  100 18 0  102 18 0  104 18 0  106 18 0  108 18 0  110 18 0  112 18 0  114 18 0  116 18 0  118 18 0  120 18 0  122 18 0  124 18 0  126 18 0  128 18 0  130 18 0  132 18 0  134 18 0  136 18 0  138 18 0  140 18 0  142 18 0  144 18 0  146 18 0  148 18 0  150 18 0  152 18 0  154 18 0  156 18 0  158 18 0  160 18 0  162 18 0  164 18 0  166 18 0  168 18 0  170 18 0  172 18 0  174 18 0  176 18 0  178 18 0  180 18 0  182 18 0  184 18 0  186 18 0  188 18 0  190 18 0  192 18 0  194 18 0  196 18 0  198 18 0  200 18 0  0 20 0  2 20 0  4 20 0  6 20 0  8 20 0  10 20 0  12 20 0  14 20 0  16 20 0  18 20 0  20 20 0  22 20 0  24 20 0  26 20 0  28 20 0  30 20 0  32 20 0  34 20 0  36 20 0  38 20 0  40 20 0  42 20 0  44 20 0  46 20 0  48 20 0  50 20 0  52 20 0  54 20 0  56 20 0  58 20 0  60 20 0  62 20 0  64 20 0  66 20 0  68 20 0  70 20 0  72 20 0  74 20 0  76 20 0  78 20 0  80 20 0  82 20 0  84 20 0  86 20 0  88 20 0  90 20 0  92 20 0  94 20 0  96 20 0  98 20 0  100 20 0  102 20 0  104 20 0  106 20 0  108 20 0  110 20 0  112 20 0  114 20 0  116 20 0  118 20 0  120 20 0  122 20 0  124 20 0  126 20 0  128 20 0  130 20 0  132 20 0  134 20 0  136 20 0  138 20 0  140 20 0  142 20 0  144 20 0  146 20 0  148 20 0  150 20 0  152 20 0  154 20 0  156 20 0
[...]
<PointData  Scalars="f_271-2"> 
<DataArray  type="Float64"  Name="f_271-2"  format="ascii">2.2768915730566791e-10  2.2020456485838758e-10  1.9928625188851024e-10  1.6908486837526813e-10  1.3518669286632019e-10  1.0317514282217406e-10  7.7437946688741891e-11  6.0529083433179110e-11  5.3104691362054527e-11  5.4242643040228972e-11  6.1911949441077134e-11  7.3441239696968534e-11  8.5944482361958705e-11  9.6718737580724118e-11  1.0361608165178361e-10  1.0534392020228935e-10  1.0161668296027811e-10  9.3101565336025696e-11  8.1165862714747230e-11  6.7504370740662240e-11  5.3760767435931531e-11  4.1242303449825847e-11  3.0778924785456151e-11  2.2724857691416569e-11  1.7063543221605806e-11  1.3561719670820810e-11  1.1921350613085629e-11  1.1891595922030213e-11  1.3320302534148729e-11  1.6140704374757389e-11  2.0302093979713328e-11  2.5664284747936005e-11  3.1887626263153365e-11  3.8363379758734483e-11  4.4235393058651374e-11  4.8547157072225905e-11  5.0497069551873709e-11  4.9713072304022749e-11  4.6412133883754107e-11  4.1340804675868355e-11  3.5503653091281037e-11  2.9810274722584750e-11  2.4817164267912161e-11  2.0672301917484985e-11  1.7242640651926408e-11  1.4312542653786630e-11  1.1737015282919718e-11  9.4956362127987919e-12  7.6621054824295769e-12  6.3374507464842678e-12  5.5857050853871760e-12  5.3719377266416818e-12  5.4346775907498555e-12  4.9400609451404730e-12  2.5999607051485330e-12  3.8734571322581268e-13  2.4377401237027841e-14  2.2199860413170044e-15  2.0469389652494809e-16  3.0910231456363580e-17  5.8038243339756607e-17  2.6687417443659086e-15  1.6314115046345249e-14  6.6974529546179959e-15  4.6876639062335245e-16  1.2760106065079164e-17  1.1276009415610019e-18  1.6196630451698208e-18  1.6094550818580393e-17  2.1152762990238765e-16  3.7773204333001392e-15  5.9479847725931235e-14  1.1766274432507977e-12  7.2447495340036686e-12  1.2449068165401061e-11  1.2440206667494700e-11  1.0414034479545800e-11  8.4147962838601484e-12  7.1483876818467305e-12  6.8357122730575754e-12  7.6365257925879899e-12  9.8016420175259722e-12  1.3660122391556705e-11  1.9491804765923939e-11  2.7324245632600588e-11  3.6701550476919800e-11  4.6474147249626170e-11  5.4617455047318362e-11  5.7951775787483169e-11  5.1420980085053618e-11  2.9118616672174974e-11  4.9699008202951026e-12  1.4789516804172771e-13  3.0007923510754919e-15  -1.2689434677479633e-17  4.4903010581909589e-18  -1.2074765589944719e-19  9.9023419630523495e-21  -7.3047835239387098e-22  -9.7854631634090066e-23  -1.9483389880352829e-22  2.2091652411895233e-10  2.1370095117811815e-10  1.9352606689908768e-10  1.6437382677187182e-10  1.3161260210017495e-10  1.0062267699962592e-10  7.5650316798372930e-11  5.9187340147965855e-11  5.1898896026648624e-11  5.2921524466825024e-11  6.0309673726228681e-11  7.1486164664393380e-11  8.3655214149385305e-11  9.4190524676347400e-11  1.0099885454282537e-10  1.0281378398167105e-10  9.9344900709338202e-11  9.1227040759820609e-11  7.9776943400414826e-11  6.6633087901055078e-11  5.3388740242532360e-11  4.1314372903237292e-11  3.1219329340321675e-11  2.3451426796752298e-11  1.7997189655951772e-11  1.4630539808440577e-11  1.3060241945386619e-11  1.3039197171290317e-11  1.4415297709999597e-11  1.7119345017148095e-11  2.1098438408806162e-11  2.6214213849485988e-11  3.2136982195532386e-11  3.8279251665527571e-11  4.3817599835738191e-11  4.7835124921416656e-11  4.9567163664258848e-11  4.8664379436701808e-11  4.5344174111098739e-11  4.0331622256316218e-11  3.4597428500802398e-11  2.9018809427909020e-11  2.4132273514782185e-11  2.0081260974910272e-11  1.6739216124165463e-11  1.3900516860717961e-11  1.1427782129494647e-11  9.3035812121330114e-12  7.6008017609506587e-12  6.4177772272442260e-12  5.8156744421125071e-12  5.7586960618341118e-12  5.9926917931858144e-12  5.6983488121908776e-12  3.3768432708061881e-12  6.2354792871807075e-13  4.8695546187723422e-14  4.7421194740221721e-15  5.8807132760448578e-16  7.6454609837153740e-17  5.3604402938429869e-16  1.4054907564163579e-14  8.0118040061137859e-14  2.9560685934565280e-14  1.6566184064472582e-15  5.2964146350681116e-17  3.3390476488483423e-18  5.7217426458117934e-18  3.6524580744401112e-17  4.3214654790242365e-16  5.9878368994508176e-15  9.2060738085976506e-14  1.5582212657956860e-12  8.2475593219524094e-12  1.3250027341746317e-11  1.3096343443469249e-11  1.1071485184077494e-11  9.0952749677096145e-12  7.8267456508494118e-12  7.4753168333980334e-12  8.1985529931023119e-12  1.0244810155134536e-11  1.3938758083158268e-11  1.9556791148259466e-11  2.7129894696313348e-11  3.6220341725392990e-11  4.5721294823503868e-11  5.3692784416802845e-11  5.7131876414057732e-11  5.1406758548531442e-11  3.0909254667985434e-11  6.3085259905601455e-12  2.5297479972385251e-13  5.7126496372892904e-15  1.0282033712974541e-16  9.8402431367035305e-18  8.8143644396047086e-20  1.6862065504166542e-22  2.0014832860540358e-21  -2.6039634415945769e-22  2.7293350403387981e-22  2.0182851936543435e-10  1.9536445656746681e-10  1.7726840019370503e-10  1.5105568369469897e-10  1.2148971637537723e-10  9.3383252313287182e-11  7.0582766195320979e-11  5.5398958043650421e-11  4.8514608382290638e-11  4.9224995651404235e-11  5.5821772006452367e-11  6.5993139657932770e-11  7.7200520748407264e-11  8.7038318283266181e-11  9.3572784519668747e-11  9.5616399702845993e-11  9.2869335939332328e-11  8.5878132617854157e-11  7.5818349825995767e-11  6.4169334713428389e-11  5.2380187043372591e-11  4.1614157808220387e-11  3.2617779724480934e-11  2.5715271356474380e-11  2.0896016714145378e-11  1.7948699694248441e-11  1.6596880058288298e-11  1.6601504471363969e-11  1.7810526715913661e-11  2.0150417917579393e-11  2.3566879849726752e-11  2.7932948052303619e-11  3.2953677488849431e-11  3.8107381166138436e-11  4.2667068444703749e-11  4.5829347442359127e-11  4.6933275874732114e-11  4.5691526354062785e-11  4.2319976138747174e-11  3.7480492028284933e-11  3.2046067615529605e-11  2.6800772333764918e-11  2.2223185914633054e-11  1.8442764790461095e-11  1.5350783754508570e-11  1.2770364919855584e-11  1.0587039627618628e-11  8.7938293380051411e-12  7.4633086960018222e-12  6.6875041297391951e-12  6.5195321536698759e-12  6.9194786563682268e-12  7.6514321157162429e-12  7.9726822479473642e-12  6.1112758978664858e-12  1.9845308319355955e-12  2.4334280023738549e-13  3.1628563435258775e-14  6.0912199697217747e-15  3.0347260723424402e-15  9.8134857434888352e-15  1.6707192344488913e-13  6.6642379237303960e-13  2.1752310079180921e-13  1.2194427031427875e-14  4.4136859249814057e-16  7.5725424462445155e-17  5.4694592177280720e-17  2.8099734349494709e-16  1.9576502426571164e-15  2.1589790366734322e-14  2.8651138551547961e-13  3.2681147165065448e-12  1.1365548437465919e-11  1.5573585469108219e-11  1.5091852567532162e-11  1.3126045282287842e-11  1.1244184503574236e-11  9.9800944944821030e-12  9.5128284454706892e-12  9.9957321685787168e-12  1.1673335011265621e-11  1.4861878707412094e-11  1.9832089424400276e-11  2.6627920407775702e-11  3.4864584284754903e-11  4.3554265682216849e-11  5.0984824833645482e-11  5.4603392436893042e-11  5.0775262802893042e-11  3.5011532062264518e-11  1.1105132376056557e-11  8.8403972950868130e-13  2.8292650177304659e-14  1.3553403977232435e-15  9.3385306841279260e-17  4.2113953828578993e-18  8.3091644190771660e-19  1.1134471872418950e-19  5.2834291312512694e-20  3.9375462315829873e-20  1.7375661813725245e-10  1.6837839809943606e-10  1.5329200979038970e-10  1.3135223565691419e-10  1.0645973866778746e-10  8.2607553261526310e-11  6.3051449124027688e-11  4.9818620036218763e-11  4.3594760759847209e-11  4.3888452931030820e-11  4.9328581389286254e-11  5.7992316461625645e-11  6.7727012506199627e-11  7.6465350641130296e-11  8.2524568452153405e-11  8.4849460361684679e-11  8.3140308770760865e-11  7.7823863927563293e-11  6.9873169187335717e-11  6.0533155584451585e-11  5.1035028104220865e-11  4.2373470665811961e-11  3.5187585830169060e-11  2.9748805837983897e-11  2.6031235502602458e-11  2.3826625531251870e-11  2.2865266310653694e-11  2.2911312266219294e-11  2.3812586356487595e-11  2.5497855943391138e-11  2.7926992884613029e-11  3.1010716609906003e-11  3.4527049534605394e-11  3.8070102825002864e-11  4.1067825234888137e-11  4.2889394301956627e-11  4.3024874409543945e-11  4.1271492446786271e-11  3.7834006313584286e-11  3.3272609463657351e-11  2.8309141789278501e-11  2.3584498588550596e-11  1.9486981835189567e-11  1.6121904184581530e-11  1.3405582535760750e-11  1.1205291911809287e-11  9.4449727560196404e-12  8.1393359937551063e-12  7.3665825845626491e-12  7.2133942976600433e-12  7.7211320118344482e-12  8.8385948287915416e-12  1.0346074616398810e-11  1.1637338504749656e-11  1.1172906190539762e-11  6.8835757441540384e-12  1.9670063434445517e-12  3.6782605443905461e-13  9.6037687553846424e-14  6.9982268512250569e-14  2.9190952656979583e-13  1.8190914504191973e-12  3.6535524854595944e-12  1.3656078986672277e-12  1.0520030020069604e-13  8.3101144235149493e-15  1.3672366507807985e-15  1.1304379714452897e-15  2.9848729478809281e-15  1.6845415357276777e-14  1.2459495465753412e-13  1.3743827163544258e-12  7.9712663904017873e-12  1.6367435417179882e-11  1.9206199154931647e-11  1.8518606233886140e-11  1.6808438349352834e-11  1.5158402491096278e-11  1.3934198599469053e-11  1.3274744062751792e-11  1.3333200902168464e-11  1.4358844415356606e-11  1.6668939894605465e-11  2.0539659389093273e-11  2.6045397864578691e-11  3.2885604557889170e-11  4.0244802739786352e-11  4.6720107649276382e-11  5.0312971656457224e-11  4.8452252419044004e-11  3.8236801950805518e-11  1.9233181224652808e-11  3.6766597617337360e-12  2.3203463043071614e-13  1.6684587028268318e-14  1.1336891517137491e-15  1.1129867685867225e-16  7.2903681227606000e-18  -1.0630390534652698e-18  -1.4629908544797821e-18  -1.3695435558457221e-18  1.4120889219996874e-10  1.3705662551816884e-10  1.2537878427475784e-10  1.0830855186977056e-10  8.8793315111991407e-11  6.9902664570727945e-11  5.4204042457625200e-11  4.3366786291799982e-11  3.8039150639404777e-11  3.7939635616505753e-11  4.2064596520345304e-11  4.8936597713979958e-11  5.6861614137849493e-11  6.4188109175937543e-11  6.9554820628891718e-11  7.2092049320238367e-11  7.1529303502744042e-11  6.8176845579809250e-11  6.2785922388392790e-11  5.6331744679860585e-11  4.9783610691285615e-11  4.3920657223174137e-11  3.9227683834707662e-11  3.5877535276433591e-11  3.3784907496605093e-11  3.2704234056039479e-11  3.2340188649308153e-11  3.2441400984220691e-11  3.2855169983430862e-11  3.3532276056607738e-11  3.4484553632782665e-11  3.5711160481717033e-11  3.7120204459232192e-11  3.8478355515620857e-11  3.9418598437393995e-11  3.9520262207283887e-11  3.8444489628322262e-11  3.6072730569604024e-11  3.2578716022383780e-11  2.8386802183246811e-11  2.4028023275827879e-11  1.9964468639574630e-11  1.6469725265470630e-11  1.3614663702400665e-11  1.1343217728560555e-11  9.5783019093939231e-12  8.2979194239758518e-12  7.5540942366963126e-12  7.4429881850707440e-12  8.0523875150622149e-12  9.4102071661316372e-12  1.1442419522486610e-11  1.3924265591123705e-11  1.6366670252331295e-11  1.7732695801876955e-11  1.6101280272524162e-11  1.0406300701883372e-11  4.7743395640142419e-12  2.4531455546449057e-12  2.3566343155415519e-12  4.5327924380539036e-12  9.2705902921173280e-12  1.1042883373808079e-11  6.0107967750473738e-12  1.1345646799866115e-12  1.1541117353778303e-13  2.4178584535625479e-14  1.6115659707310393e-14  3.7607668578315489e-14  1.7015583826814264e-13  1.1442215944844833e-12  6.1948329276456991e-12  1.5874108012154636e-11  2.2191318904361018e-11  2.3948952474117562e-11  2.3543854607283247e-11  2.2447299507075902e-11  2.1250128860079841e-11  2.0139287810149800e-11  1.9211227907868677e-11  1.8630382606854680e-11  1.8673750438744269e-11  1.9689056560345427e-11  2.1988979383669369e-11  2.5708275968620374e-11  3.0659032278840249e-11  3.6224645747058294e-11  4.1327645216144050e-11  4.4487455701584634e-11  4.3969698346633090e-11  3.8083887982626171e-11  2.6004565146212037e-11  1.0864796777827810e-11  2.0272386233694087e-12  1.9799671774129693e-13  1.9825191171829434e-14  2.3665604795951533e-15  3.9641451984816616e-16  1.0988590327970274e-16  5.2959131917605278e-17  4.2257333570094922e-17  1.0874595828850374e-10  1.0577300776065582e-10  9.7388509037349581e-11  8.5065176395226862e-11  7.0863667559023462e-11  5.6971074692312954e-11  4.5266343856539150e-11  3.7023898417176115e-11  3.2798041306819751e-11  3.2461496290889198e-11  3.5338605756753932e-11  4.0381756181718623e-11  4.6364659952056512e-11  5.2081397155887332e-11  5.6536159858046526e-11  5.9095150284548502e-11  5.9566211961064368e-11  5.8183971148105291e-11  5.5504972804460368e-11  5.2244479579785509e-11  4.9100640287678701e-11  4.6608490496839083e-11  4.5051486206268207e-11  4.4440886916168391e-11  4.4558632947159261e-11  4.5047910799288241e-11  4.5526470017430771e-11  4.5692186654292350e-11  4.5391764103022012e-11  4.4634062548710296e-11  4.3547239371576204e-11  4.2297487510491357e-11  4.1000010053665404e-11  3.9656061171822205e-11  3.8142391886279514e-11  3.6261668566203946e-11  3.3837139432947359e-11  3.0810652239624811e-11  2.7294689635185568e-11  2.3547887702304507e-11  1.9884472772419828e-11  1.6566652797418141e-11  1.3737659454275017e-11  1.1425006231817952e-11  9.5997033167884022e-12  8.2486170611715738e-12  7.4191819451567426e-12  7.2192926369358809e-12  7.7800130275243272e-12  9.2009162720099402e-12  1.1496888857715944e-11  1.4557392659955628e-11  1.8117656934346180e-11  2.1723888544158167e-11  2.4659168521812633e-11  2.5858557201457882e-11  2.4175695646543635e-11  1.9977557808296448e-11  1.6311081884050453e-11  1.5689847849891795e-11  1.7986244066882652e-11  2.0519183666502178e-11  1.9906332104376210e-11  1.4587287757614587e-11  6.6651910727544971e-12  1.9514415050981048e-12  6.8498012373538195e-13  4.9947583882992834e-13  8.0491520097307886e-13  2.2584021249737303e-12  7.1295818960858135e-12  1.5987370245607077e-11  2.3760201950209857e-11  2.7970250741662174e-11  2.9772493852837340e-11  3.0380306490770676e-11  3.0380206863904290e-11  2.9931969840326541e-11  2.9044408225800968e-11  2.7770006673612323e-11  2.6302361947439033e-11  2.4985240377761092e-11  2.4249098620346608e-11  2.4497070908532929e-11  2.5969007520405874e-11  2.8617182412785206e-11  3.2028069408215165e-11  3.5418468978976300e-11  3.7721113290073522e-11  3.7761582940739860e-11  3.4529561062158417e-11  2.7579736396835811e-11  1.7652102730975730e-11  7.7438073743372203e-12  2.0406801968278640e-12  3.7804416554317925e-13  6.4776285828669663e-14  1.1734458768051265e-14  2.2592645432264548e-15  4.6525517793359047e-16  1.7300054744107387e-16  8.0051903075893967e-11  7.8072266780674797e-11  7.2479001650893680e-11  6.4229517882052679e-11  5.4676394668008197e-11  4.5274925540321345e-11  3.7297454675006360e-11  3.1627474854950934e-11  2.8668384741751755e-11  2.8358038779425293e-11  3.0255241471631903e-11  3.3664341278736927e-11  3.7776313080092398e-11  4.1812903123672728e-11  4.5158561341528902e-11  4.7458900026530624e-11  4.8664139366284003e-11  4.9006274655600420e-11  4.8915930389481107e-11  4.8900481569921846e-11  4.9412301665062878e-11  5.0734490668747998e-11  5.2905584876327599e-11  5.5698529779477904e-11  5.8662125427299183e-11  6.1221590298733742e-11  6.2817647425775285e-11  6.3046373790985837e-11  6.1755736668426593e-11  5.9066869993579190e-11  5.5315629510209609e-11  5.0939674509530449e-11  4.6353980646511142e-11  4.1856970646452713e-11  3.7593671006217143e-11  3.3579380765395048e-11  2.9764936764352163e-11  2.6109632068270956e-11  2.2626848959747699e-11  1.9383661578886683e-11  1.6462844384265675e-11  1.3918060958520131e-11  1.1755137214432813e-11  9.9525325417906800e-12  8.5070794467158254e-12  7.4758410652379476e-12  6.9895671565697064e-12  7.2303273270255186e-12  8.3817825599398458e-12  1.0567349312996777e-11  1.3791074069075277e-11  1.7894032653352455e-11  2.2536798829230854e-11  2.7212181102486021e-11  3.1284054045555985e-11  3.4060518681905866e-11  3.4979404475746684e-11  3.4013548768106902e-11  3.2070926864524169e-11  3.0441434341763656e-11  2.9424464998081069e-11  2.8194220407746716e-11  2.5742343744955420e-11  2.1435346375984182e-11  1.5469944342389587e-11  9.6441290930065731e-12  6.1512171045880430e-12  5.2824102395096951e-12  6.7373991704173559e-12  1.0879397277321682e-11  1.7392382799069099e-11  2.4182745661579541e-11  2.9610922222816463e-11  3.3666664895896372e-11  3.6784957519860080e-11  3.9195280997280716e-11  4.0830585590963444e-11  4.1473634789998997e-11  4.0944809848265026e-11  3.9245238763704243e-11  3.6619570985972454e-11  3.3531763132854857e-11  3.0568138551343552e-11  2.8296946682576917e-11  2.7121230954016638e-11  2.7161336234910533e-11  2.8195970513946560e-11  2.9678854654540702e-11  3.0834486095043030e-11  3.0824026876526370e-11  2.8962492414196914e-11  2.4957428488088304e-11  1.9119842290637143e-11  1.2449066430435037e-11  6.5178302532671195e-12  2.6864015217097441e-12  9.2817479973390918e-13  3.2276881226953884e-13  1.3897990886003229e-13  8.2811928757310050e-14  6.9784975030882681e-14  5.7438454203261040e-11  5.6190508091572737e-11  5.2672650988219419e-11  4.7509291404399448e-11  4.1577812199605994e-11  3.5812966410055056e-11  3.1016838281974216e-11  2.7723528611352883e-11  2.6142970292919633e-11  2.6179564397768497e-11  2.7503752225610258e-11  2.9652138912189262e-11  3.2136906407132678e-11  3.4548993434487008e-11  3.6639650392029540e-11  3.8365666214434584e-11  3.9889091144631027e-11  4.1532149724230706e-11  4.3697571652983835e-11  4.6769358326930395e-11  5.1008855392384269e-11  5.6460049303390249e-11  6.2880720148026047e-11  6.9721929223502368e-11  7.6179635665407509e-11  8.1328936877389091e-11  8.4321094150054335e-11  8.4588706921224616e-11  8.1987876908074425e-11  7.6824035761118721e-11  6.9754527273696087e-11  6.1610322049045696e-11  5.3204597756099631e-11  4.5188139585255964e-11  3.7981575809512040e-11  3.1781258160215606e-11  2.6612847754346156e-11  2.2399003752133121e-11  1.9013735558062019e-11  1.6311717311129381e-11  1.4138901286758896e-11  1.2341704116775109e-11  1.0789373792468135e-11  9.4100476905482754e-12  8.2260302424173157e-12  7.3689200623438932e-12  7.0629738426472509e-12  7.5783650184864520e-12  9.1651673548852781e-12  1.1980601253271380e-11  1.6021072107228184e-11  2.1072855464131993e-11  2.6699731870409038e-11  3.2283839835336074e-11  3.7122443794040615e-11  4.0567319156810792e-11  4.2187773895294780e-11  4.1926116135037983e-11  4.0148605650765252e-11  3.7459820678549852e-11  3.4354077103759298e-11  3.1025379770920689e-11  2.7452132952511118e-11  2.3593583129844625e-11  1.9604518450103444e-11  1.5998033220600040e-11  1.3591503990666555e-11  1.3086718797867546e-11  1.4729421205559180e-11  1.8286225560964595e-11  2.3089694846132237e-11  2.8443792188503087e-11  3.3993270213088916e-11  3.9598602208616758e-11  4.5061954897011724e-11  4.9976333194014212e-11  5.3765743083324097e-11  5.5846470589088743e-11  5.5819823383272620e-11  5.3619460784912662e-11  4.9563870794926029e-11  4.4299546242775243e-11  3.8655075088998319e-11  3.3451026673942783e-11  2.9318854000916962e-11  2.6573713930309992e-11  2.5166709395820414e-11  2.4720402950908507e-11  2.4634907590066503e-11  2.4242446101898879e-11  2.2982681156514438e-11  2.0564453252417770e-11  1.7069489718632891e-11  1.2949866224177358e-11  8.8826962944030843e-12  5.5119160256950263e-12  3.1891211642773421e-12  1.8589262106944787e-12  1.2076429508352939e-12  9.3082396363120335e-13  8.5571611613227597e-13  4.1796344219679128e-11  4.1002020282539290e-11  3.8792292742375731e-11  3.5637547589368253e-11  3.2175070185334989e-11  2.9043315752479584e-11  2.6733874621300623e-11  2.5500778387944372e-11  2.5341414831997846e-11  2.6040078896655791e-11  2.7253160403564565e-11  2.8613432673095873e-11  2.9833048891695256e-11  3.0786009795095725e-11  3.1552766329486295e-11  3.2416677808988420e-11  3.3814474540114795e-11  3.6254641706948438e-11  4.0221544475542803e-11  4.6077647368926433e-11  5.3967693887685709e-11  6.37