<?xml version="1.0"?>
<VTKFile type="UnstructuredGrid"  version="0.1"  >
<UnstructuredGrid>
<Piece  NumberOfPoints="20201" NumberOfCells="40000">
<Points>
<DataArray  type="Float64"  NumberOfComponents="3"  format="ascii">0 0 0  2 0 0  4 0 0  6 0 0  8 0 0  10 0 0  12 0 0  14 0 0  16 0 0  18 0 0  20 0 0  22 0 0  24 0 0  26 0 0  28 0 0  30 0 0  32 0 0  34 0 0  36 0 0  38 0 0  40 0 0  42 0 0  44 0 0  46 0 0  48 0 0  50 0 0  52 0 0  54 0 0  56 0 0  58 0 0  60 0 0  62 0 0  64 0 0  66 0 0  68 0 0  70 0 0  72 0 0  74 0 0  76 0 0  78 0 0  80 0 0  82 0 0  84 0 0  86 0 0  88 0 0  90 0 0  92 0 0  94 0 0  96 0 0  98 0 0  100 0 0  102 0 0  104 0 0  106 0 0  108 0 0  110 0 0  112 0 0  114 0 0  116 0 0  118 0 0  120 0 0  122 0 0  124 0 0  126 0 0  128 0 0  130 0 0  132 0 0  134 0 0  136 0 0  138 0 0  140 0 0  142 0 0  144 0 0  146 0 0  148 0 0  150 0 0  152 0 0  154 0 0  156 0 0  158 0 0  160 0 0  162 0 0  164 0 0  166 0 0  168 0 0  170 0 0  172 0 0  174 0 0  176 0 0  178 0 0  180 0 0  182 0 0  184 0 0  186 0 0  188 0 0  190 0 0  192 0 0  194 0 0  196 0 0  198 0 0  200 0 0  0 2 0  2 2 0  4 2 0  6 2 0  8 2 0  10 2 0  12 2 0  14 2 0  16 2 0  18 2 0  20 2 0  22 2 0  24 2 0  26 2 0  28 2 0  30 2 0  32 2 0  34 2 0  36 2 0  38 2 0  40 2 0  42 2 0  44 2 0  46 2 0  48 2 0  50 2 0  52 2 0  54 2 0  56 2 0  58 2 0  60 2 0  62 2 0  64 2 0  66 2 0  68 2 0  70 2 0  72 2 0  74 2 0  76 2 0  78 2 0  80 2 0  82 2 0  84 2 0  86 2 0  88 2 0  90 2 0  92 2 0  94 2 0  96 2 0  98 2 0  100 2 0  102 2 0  104 2 0  106 2 0  108 2 0  110 2 0  112 2 0  114 2 0  116 2 0  118 2 0  120 2 0  122 2 0  124 2 0  126 2 0  128 2 0  130 2 0  132 2 0  134 2 0  136 2 0  138 2 0  140 2 0  142 2 0  144 2 0  146 2 0  148 2 0  150 2 0  152 2 0  154 2 0  156 2 0  158 2 0  160 2 0  162 2 0  164 2 0  166 2 0  168 2 0  170 2 0  172 2 0  174 2 0  176 2 0  178 2 0  180 2 0  182 2 0  184 2 0  186 2 0  188 2 0  190 2 0  192 2 0  194 2 0  196 2 0  198 2 0  200 2 0  0 4 0  2 4 0  4 4 0  6 4 0  8 4 0  10 4 0  12 4 0  14 4 0  16 4 0  18 4 0  20 4 0  22 4 0  24 4 0  26 4 0  28 4 0  30 4 0  32 4 0  34 4 0  36 4 0  38 4 0  40 4 0  42 4 0  44 4 0  46 4 0  48 4 0  50 4 0  52 4 0  54 4 0  56 4 0  58 4 0  60 4 0  62 4 0  64 4 0  66 4 0  68 4 0  70 4 0  72 4 0  74 4 0  76 4 0  78 4 0  80 4 0  82 4 0  84 4 0  86 4 0  88 4 0  90 4 0  92 4 0  94 4 0  96 4 0  98 4 0  100 4 0  102 4 0  104 4 0  106 4 0  108 4 0  110 4 0  112 4 0  114 4 0  116 4 0  118 4 0  120 4 0  122 4 0  124 4 0  126 4 0  128 4 0  130 4 0  132 4 0  134 4 0  136 4 0  138 4 0  140 4 0  142 4 0  144 4 0  146 4 0  148 4 0  150 4 0  152 4 0  154 4 0  156 4 0  158 4 0  160 4 0  162 4 0  164 4 0  166 4 0  168 4 0  170 4 0  172 4 0  174 4 0  176 4 0  178 4 0  180 4 0  182 4 0  184 4 0  186 4 0  188 4 0  190 4 0  192 4 0  194 4 0  196 4 0  198 4 0  200 4 0  0 6 0  2 6 0  4 6 0  6 6 0  8 6 0  10 6 0  12 6 0  14 6 0  16 6 0  18 6 0  20 6 0  22 6 0  24 6 0  26 6 0  28 6 0  30 6 0  32 6 0  34 6 0  36 6 0  38 6 0  40 6 0  42 6 0  44 6 0  46 6 0  48 6 0  50 6 0  52 6 0  54 6 0  56 6 0  58 6 0  60 6 0  62 6 0  64 6 0  66 6 0  68 6 0  70 6 0  72 6 0  74 6 0  76 6 0  78 6 0  80 6 0  82 6 0  84 6 0  86 6 0  88 6 0  90 6 0  92 6 0  94 6 0  96 6 0  98 6 0  100 6 0  102 6 0  104 6 0  106 6 0  108 6 0  110 6 0  112 6 0  114 6 0  116 6 0  118 6 0  120 6 0  122 6 0  124 6 0  126 6 0  128 6 0  130 6 0  132 6 0  134 6 0  136 6 0  138 6 0  140 6 0  142 6 0  144 6 0  146 6 0  148 6 0  150 6 0  152 6 0  154 6 0  156 6 0  158 6 0  160 6 0  162 6 0  164 6 0  166 6 0  168 6 0  170 6 0  172 6 0  174 6 0  176 6 0  178 6 0  180 6 0  182 6 0  184 6 0  186 6 0  188 6 0  190 6 0  192 6 0  194 6 0  196 6 0  198 6 0  200 6 0  0 8 0  2 8 0  4 8 0  6 8 0  8 8 0  10 8 0  12 8 0  14 8 0  16 8 0  18 8 0  20 8 0  22 8 0  24 8 0  26 8 0  28 8 0  30 8 0  32 8 0  34 8 0  36 8 0  38 8 0  40 8 0  42 8 0  44 8 0  46 8 0  48 8 0  50 8 0  52 8 0  54 8 0  56 8 0  58 8 0  60 8 0  62 8 0  64 8 0  66 8 0  68 8 0  70 8 0  72 8 0  74 8 0  76 8 0  78 8 0  80 8 0  82 8 0  84 8 0  86 8 0  88 8 0  90 8 0  92 8 0  94 8 0  96 8 0  98 8 0  100 8 0  102 8 0  104 8 0  106 8 0  108 8 0  110 8 0  112 8 0  114 8 0  116 8 0  118 8 0  120 8 0  122 8 0  124 8 0  126 8 0  128 8 0  130 8 0  132 8 0  134 8 0  136 8 0  138 8 0  140 8 0  142 8 0  144 8 0  146 8 0  148 8 0  150 8 0  152 8 0  154 8 0  156 8 0  158 8 0  160 8 0  162 8 0  164 8 0  166 8 0  168 8 0  170 8 0  172 8 0  174 8 0  176 8 0  178 8 0  180 8 0  182 8 0  184 8 0  186 8 0  188 8 0  190 8 0  192 8 0  194 8 0  196 8 0  198 8 0  200 8 0  0 10 0  2 10 0  4 10 0  6 10 0  8 10 0  10 10 0  12 10 0  14 10 0  16 10 0  18 10 0  20 10 0  22 10 0  24 10 0  26 10 0  28 10 0  30 10 0  32 10 0  34 10 0  36 10 0  38 10 0  40 10 0  42 10 0  44 10 0  46 10 0  48 10 0  50 10 0  52 10 0  54 10 0  56 10 0  58 10 0  60 10 0  62 10 0  64 10 0  66 10 0  68 10 0  70 10 0  72 10 0  74 10 0  76 10 0  78 10 0  80 10 0  82 10 0  84 10 0  86 10 0  88 10 0  90 10 0  92 10 0  94 10 0  96 10 0  98 10 0  100 10 0  102 10 0  104 10 0  106 10 0  108 10 0  110 10 0  112 10 0  114 10 0  116 10 0  118 10 0  120 10 0  122 10 0  124 10 0  126 10 0  128 10 0  130 10 0  132 10 0  134 10 0  136 10 0  138 10 0  140 10 0  142 10 0  144 10 0  146 10 0  148 10 0  150 10 0  152 10 0  154 10 0  156 10 0  158 10 0  160 10 0  162 10 0  164 10 0  166 10 0  168 10 0  170 10 0  172 10 0  174 10 0  176 10 0  178 10 0  180 10 0  182 10 0  184 10 0  186 10 0  188 10 0  190 10 0  192 10 0  194 10 0  196 10 0  198 10 0  200 10 0  0 12 0  2 12 0  4 12 0  6 12 0  8 12 0  10 12 0  12 12 0  14 12 0  16 12 0  18 12 0  20 12 0  22 12 0  24 12 0  26 12 0  28 12 0  30 12 0  32 12 0  34 12 0  36 12 0  38 12 0  40 12 0  42 12 0  44 12 0  46 12 0  48 12 0  50 12 0  52 12 0  54 12 0  56 12 0  58 12 0  60 12 0  62 12 0  64 12 0  66 12 0  68 12 0  70 12 0  72 12 0  74 12 0  76 12 0  78 12 0  80 12 0  82 12 0  84 12 0  86 12 0  88 12 0  90 12 0  92 12 0  94 12 0  96 12 0  98 12 0  100 12 0  102 12 0  104 12 0  106 12 0  108 12 0  110 12 0  112 12 0  114 12 0  116 12 0  118 12 0  120 12 0  122 12 0  124 12 0  126 12 0  128 12 0  130 12 0  132 12 0  134 12 0  136 12 0  138 12 0  140 12 0  142 12 0  144 12 0  146 12 0  148 12 0  150 12 0  152 12 0  154 12 0  156 12 0  158 12 0  160 12 0  162 12 0  164 12 0  166 12 0  168 12 0  170 12 0  172 12 0  174 12 0  176 12 0  178 12 0  180 12 0  182 12 0  184 12 0  186 12 0  188 12 0  190 12 0  192 12 0  194 12 0  196 12 0  198 12 0  200 12 0  0 14 0  2 14 0  4 14 0  6 14 0  8 14 0  10 14 0  12 14 0  14 14 0  16 14 0  18 14 0  20 14 0  22 14 0  24 14 0  26 14 0  28 14 0  30 14 0  32 14 0  34 14 0  36 14 0  38 14 0  40 14 0  42 14 0  44 14 0  46 14 0  48 14 0  50 14 0  52 14 0  54 14 0  56 14 0  58 14 0  60 14 0  62 14 0  64 14 0  66 14 0  68 14 0  70 14 0  72 14 0  74 14 0  76 14 0  78 14 0  80 14 0  82 14 0  84 14 0  86 14 0  88 14 0  90 14 0  92 14 0  94 14 0  96 14 0  98 14 0  100 14 0  102 14 0  104 14 0  106 14 0  108 14 0  110 14 0  112 14 0  114 14 0  116 14 0  118 14 0  120 14 0  122 14 0  124 14 0  126 14 0  128 14 0  130 14 0  132 14 0  134 14 0  136 14 0  138 14 0  140 14 0  142 14 0  144 14 0  146 14 0  148 14 0  150 14 0  152 14 0  154 14 0  156 14 0  158 14 0  160 14 0  162 14 0  164 14 0  166 14 0  168 14 0  170 14 0  172 14 0  174 14 0  176 14 0  178 14 0  180 14 0  182 14 0  184 14 0  186 14 0  188 14 0  190 14 0  192 14 0  194 14 0  196 14 0  198 14 0  200 14 0  0 16 0  2 16 0  4 16 0  6 16 0  8 16 0  10 16 0  12 16 0  14 16 0  16 16 0  18 16 0  20 16 0  22 16 0  24 16 0  26 16 0  28 16 0  30 16 0  32 16 0  34 16 0  36 16 0  38 16 0  40 16 0  42 16 0  44 16 0  46 16 0  48 16 0  50 16 0  52 16 0  54 16 0  56 16 0  58 16 0  60 16 0  62 16 0  64 16 0  66 16 0  68 16 0  70 16 0  72 16 0  74 16 0  76 16 0  78 16 0  80 16 0  82 16 0  84 16 0  86 16 0  88 16 0  90 16 0  92 16 0  94 16 0  96 16 0  98 16 0  100 16 0  102 16 0  104 16 0  106 16 0  108 16 0  110 16 0  112 16 0  114 16 0  116 16 0  118 16 0  120 16 0  122 16 0  124 16 0  126 16 0  128 16 0  130 16 0  132 16 0  134 16 0  136 16 0  138 16 0  140 16 0  142 16 0  144 16 0  146 16 0  148 16 0  150 16 0  152 16 0  154 16 0  156 16 0  158 16 0  160 16 0  162 16 0  164 16 0  166 16 0  168 16 0  170 16 0  172 16 0  174 16 0  176 16 0  178 16 0  180 16 0  182 16 0  184 16 0  186 16 0  188 16 0  190 16 0  192 16 0  194 16 0  196 16 0  198 16 0  200 16 0  0 18 0  2 18 0  4 18 0  6 18 0  8 18 0  10 18 0  12 18 0  14 18 0  16 18 0  18 18 0  20 18 0  22 18 0  24 18 0  26 18 0  28 18 0  30 18 0  32 18 0  34 18 0  36 18 0  38 18 0  40 18 0  42 18 0  44 18 0  46 18 0  48 18 0  50 18 0  52 18 0  54 18 0  56 18 0  58 18 0  60 18 0  62 18 0  64 18 0  66 18 0  68 18 0  70 18 0  72 18 0  74 18 0  76 18 0  78 18 0  80 18 0  82 18 0  84 18 0  86 18 0  88 18 0  90 18 0  92 18 0  94 18 0  96 18 0  98 18 0  100 18 0  102 18 0  104 18 0  106 18 0  108 18 0  110 18 0  112 18 0  114 18 0  116 18 0  118 18 0  120 18 0  122 18 0  124 18 0  126 18 0  128 18 0  130 18 0  132 18 0  134 18 0  136 18 0  138 18 0  140 18 0  142 18 0  144 18 0  146 18 0  148 18 0  150 18 0  152 18 0  154 18 0  156 18 0  158 18 0  160 18 0  162 18 0  164 18 0  166 18 0  168 18 0  170 18 0  172 18 0  174 18 0  176 18 0  178 18 0  180 18 0  182 18 0  184 18 0  186 18 0  188 18 0  190 18 0  192 18 0  194 18 0  196 18 0  198 18 0  200 18 0  0 20 0  2 20 0  4 20 0  6 20 0  8 20 0  10 20 0  12 20 0  14 20 0  16 20 0  18 20 0  20 20 0  22 20 0  24 20 0  26 20 0  28 20 0  30 20 0  32 20 0  34 20 0  36 20 0  38 20 0  40 20 0  42 20 0  44 20 0  46 20 0  48 20 0  50 20 0  52 20 0  54 20 0  56 20 0  58 20 0  60 20 0  62 20 0  64 20 0  66 20 0  68 20 0  70 20 0  72 20 0  74 20 0  76 20 0  78 20 0  80 20 0  82 20 0  84 20 0  86 20 0  88 20 0  90 20 0  92 20 0  94 20 0  96 20 0  98 20 0  100 20 0  102 20 0  104 20 0  106 20 0  108 20 0  110 20 0  112 20 0  114 20 0  116 20 0  118 20 0  120 20 0  122 20 0  124 20 0  126 20 0  128 20 0  130 20 0  132 20 0  134 20 0  136 20 0  138 20 0  140 20 0  142 20 0  144 20 0  146 20 0  148 20 0  150 20 0  152 20 0  154 20 0  156 20 0
[...]
<PointData  Scalars="f_271-2"> 
<DataArray  type="Float64"  Name="f_271-2"  format="ascii">3.0593488932872587e-01  2.9148382440970028e-01  2.5090644288257385e-01  1.8737570833152631e-01  1.1441164790995159e-01  5.1340667923572017e-02  1.1728532618704308e-02  1.0851845078733613e-03  1.9622922042542738e-02  6.1804259682087623e-02  1.1682472870128670e-01  1.7334195803208288e-01  2.2265564363877435e-01  2.5812851394066982e-01  2.7433449294826917e-01  2.6793408235391480e-01  2.3985178191809703e-01  1.9626069342305555e-01  1.4632165665817015e-01  9.8574242875479848e-02  5.8909233228026422e-02  3.0165766747706081e-02  1.2379116345921738e-02  3.4866712964903958e-03  3.9449263632550865e-04  5.1889476638507869e-05  2.6479438562486250e-04  1.3456816000462809e-04  7.7853980363049166e-05  1.4687752174970415e-03  6.0508181305205166e-03  1.5319734988892712e-02  3.0045683820427976e-02  5.0014165915803294e-02  7.3956186615569561e-02  9.9542198210226668e-02  1.2337098690165896e-01  1.4133511746399702e-01  1.5009526591808392e-01  1.4899448227628728e-01  1.4020617369623606e-01  1.2678940223009033e-01  1.1081918314097769e-01  9.3121421941674443e-02  7.4204586164755490e-02  5.5129806435406242e-02  3.7488688933113648e-02  2.2797983111852407e-02  1.1960125511593703e-02  5.0572213676783372e-03  1.4702593196218628e-03  1.6820570514037368e-04  3.1029302587074426e-05  1.5324816566867209e-04  9.6039695138508773e-05  4.5500745239700545e-05  8.3341355435948624e-04  3.7865167875364742e-03  1.0393536466874112e-02  2.1867128933646226e-02  3.8824388937788432e-02  6.1190296132815111e-02  8.7961943233494461e-02  1.1658719179853121e-01  1.4284524613379587e-01  1.6237508237277337e-01  1.7250098246871340e-01  1.7230162417795958e-01  1.6174379557101964e-01  1.4145597371464072e-01  1.1338496413350677e-01  8.1470682189017332e-02  5.0971561999935501e-02  2.6407033278166469e-02  1.0035397977456045e-02  1.8463365200917852e-03  1.6859922117199057e-04  2.2445263155524546e-03  4.9785718214350912e-03  5.9669009089234424e-03  4.4171378476456306e-03  1.5227207449170419e-03  1.5232554020562801e-04  3.9596405990181887e-03  1.6200645671777758e-02  3.8551504036461993e-02  7.0015978900602197e-02  1.0620991329826872e-01  1.3992732327648144e-01  1.6330269030295910e-01  1.7021073863145744e-01  1.5766285044902661e-01  1.2674807833118568e-01  8.4210593654353544e-02  4.2444145684562076e-02  1.2918596925065463e-02  5.8046054710708878e-04  6.1634375475446554e-03  2.9509901951271678e-02  7.1575321267788317e-02  1.2324198889750848e-01  2.9611058135285689e-01  2.8691099607248705e-01  2.5245770042980820e-01  1.9443680587266490e-01  1.2451720363288772e-01  6.0756772228622878e-02  1.7331846712707242e-02  8.5643017469665421e-04  1.2610120083161732e-02  4.8648425403582100e-02  9.9637168932054293e-02  1.5440231268753180e-01  2.0359498000574686e-01  2.4006677844879273e-01  2.5825427953874774e-01  2.5481813543491794e-01  2.3042862665263181e-01  1.9061011033470396e-01  1.4383134883803639e-01  9.8275460625111791e-02  5.9821480132307744e-02  3.1489494039180659e-02  1.3576501183162915e-02  4.2835111661393378e-03  7.3150123407940556e-04  2.4513401972361535e-05  7.0527028058040670e-05  2.4411849913171885e-05  3.0439553844403486e-04  2.2278513852855199e-03  7.4190913276245421e-03  1.7195650610451949e-02  3.2106033695642210e-02  5.1699329958316012e-02  7.4494433647222025e-02  9.8026033127300197e-02  1.1891185592241856e-01  1.3331637604131752e-01  1.3843631925469321e-01  1.3422835505151201e-01  1.2328956416905335e-01  1.0880643774946372e-01  9.2827313513505441e-02  7.6159362766797134e-02  5.9267524182987252e-02  4.3012609150957462e-02  2.8597113678344995e-02  1.7056212547905524e-02  8.8592680194865617e-03  3.8163542560622514e-03  1.2472877355819321e-03  2.6290244362352607e-04  3.8535855081352529e-05  3.7240987043678456e-05  1.6456153268471871e-04  8.3353224638141809e-04  2.9192587236769730e-03  7.5879855453640233e-03  1.6001860966387029e-02  2.8971433855141573e-02  4.6736966904739323e-02  6.8929693950018606e-02  9.4377384880700257e-02  1.2060142206835817e-01  1.4383451319194646e-01  1.6039988149678550e-01  1.6816731401259005e-01  1.6648720923355259e-01  1.5542296620492593e-01  1.3560450112442571e-01  1.0884405869590280e-01  7.8709722034726107e-02  4.9908178141152768e-02  2.6507606907993409e-02  1.0609167110350462e-02  2.2900146697461860e-03  1.0070649043248837e-04  1.5731971063923816e-03  3.8937656400780574e-03  4.8283419819559114e-03  3.5749444407869682e-03  1.1555543314689381e-03  1.9147107963704023e-04  4.1271766910664139e-03  1.6142359157220506e-02  3.8017621274409504e-02  6.9068719773607665e-02  1.0541712589192696e-01  1.4035580129791267e-01  1.6614296733003503e-01  1.7620720679581861e-01  1.6672747449990055e-01  1.3792606348481320e-01  9.5710502631660435e-02  5.1837386335063830e-02  1.8432775629180050e-02  1.8174121715249887e-03  3.5514791049748441e-03  2.3669182122364602e-02  6.2936720265805324e-02  1.1249284869073713e-01  2.6579635391470768e-01  2.6257773675667190e-01  2.3645801638637970e-01  1.8818961527844327e-01  1.2712585605826332e-01  6.7985866678888326e-02  2.3925581833519612e-02  2.3439743508030047e-03  5.6743374945626207e-03  3.1955776349060577e-02  7.4512611393263803e-02  1.2361444610504370e-01  1.6972917837126042e-01  2.0526144899981230e-01  2.2473921553193152e-01  2.2519660813594497e-01  2.0715007743594441e-01  1.7497186093158723e-01  1.3552453126318548e-01  9.5800936183780300e-02  6.1173796448390654e-02  3.4688323642150756e-02  1.7031558363795770e-02  6.9999098752026095e-03  2.3441018030486470e-03  7.0257207112131201e-04  3.4315939578447686e-04  5.6107791080422891e-04  1.6871236363486931e-03  4.7577719903786316e-03  1.0991014506563005e-02  2.1254777368061882e-02  3.5683953255662371e-02  5.3516347531096513e-02  7.3116063570969766e-02  9.2090169399215313e-02  1.0748600859234786e-01  1.1635850721019511e-01  1.1701080718124862e-01  1.1010961686124771e-01  9.8229232130200919e-02  8.4125242852487916e-02  6.9537958699972008e-02  5.5247382888243303e-02  4.1719480166126650e-02  2.9545487076468816e-02  1.9380806940906225e-02  1.1654093833900626e-02  6.3857753989775227e-03  3.2126119584836494e-03  1.5618277217043944e-03  8.6266255063114641e-04  7.1668180301185172e-04  1.0048298978515130e-03  1.9306870118487025e-03  4.0004171982415205e-03  7.9388719991861541e-03  1.4541199155399987e-02  2.4469151876226159e-02  3.8044697796913177e-02  5.5138236797831253e-02  7.5141167175777235e-02  9.6821275937890056e-02  1.1807283034168514e-01  1.3611395122709294e-01  1.4841680892377240e-01  1.5349808976992318e-01  1.5083084353941512e-01  1.4043566080940884e-01  1.2288313991160181e-01  9.9728708778817232e-02  7.3816166401962147e-02  4.8777606152079010e-02  2.7825576091973770e-02  1.2798482188813678e-02  3.9938322336238964e-03  4.4831409706497255e-04  3.2889798985968253e-04  1.4702925347122135e-03  2.0876454847919123e-03  1.4575537617282231e-03  2.8636127497204319e-04  6.0629789550292312e-04  5.2084721609591917e-03  1.6769865118748343e-02  3.6879000813824697e-02  6.5109410896502559e-02  9.8387827714737225e-02  1.3116074920700860e-01  1.5662095926736117e-01  1.6846699951366809e-01  1.6252536120465627e-01  1.3825385935231876e-01  1.0021085500262661e-01  5.8168280811461928e-02  2.3490167072342347e-02  3.7191748951687208e-03  1.6713775118598442e-03  1.7794475944388034e-02  5.2496499064310122e-02  9.7161759859179395e-02  2.1646085048695374e-01  2.1913403285601937e-01  2.0281403110247309e-01  1.6722616310732841e-01  1.1942333372863388e-01  7.0044609455864160e-02  2.9709996290183411e-02  5.7105489791653054e-03  1.4103971953097075e-03  1.6551136212272780e-02  4.7237392800206661e-02  8.6468739214575388e-02  1.2599995514002996e-01  1.5846146265897529e-01  1.7854209307825927e-01  1.8349578650301135e-01  1.7347129672746295e-01  1.5143071488026910e-01  1.2224173891941002e-01  9.1206122287204885e-02  6.2758368906574671e-02  3.9735800240435659e-02  2.3197512770841609e-02  1.2695273927910540e-02  6.8706242702298113e-03  4.1572332067534952e-03  3.3587618096009796e-03  3.9591775514803097e-03  6.1244071948646141e-03  1.0445335422781041e-02  1.7542994364828205e-02  2.7684318203432333e-02  4.0528504668381642e-02  5.5054335127631790e-02  6.9645492816357610e-02  8.2283226334668391e-02  9.0855986564344224e-02  9.3701838496105638e-02  9.0355993040731789e-02  8.1929704818881843e-02  7.0531596748698591e-02  5.8183050110947182e-02  4.6199609184906128e-02  3.5262697004198304e-02  2.5745612214980482e-02  1.7907211699030950e-02  1.1884270616006795e-02  7.6254339771911553e-03  4.8919622193576177e-03  3.3427865637123797e-03  2.6564340434074851e-03  2.6321438028464538e-03  3.2412448074337552e-03  4.6303759538233189e-03  7.0893826199554576e-03  1.0995637031012950e-02  1.6741750963129205e-02  2.4649686737296939e-02  3.4878252367494977e-02  4.7346590842051589e-02  6.1697746358748563e-02  7.7276329043672029e-02  9.3066430297396363e-02  1.0766390817215958e-01  1.1947806029041157e-01  1.2713413436875443e-01  1.2973774967426849e-01  1.2684941840597413e-01  1.1840401139558279e-01  1.0480551834951835e-01  8.7152517276580965e-02  6.7324632710302992e-02  4.7672115406482786e-02  3.0383679724120708e-02  1.6925956868523571e-02  7.8220706302391946e-03  2.7147392626320093e-03  5.8772892745355897e-04  1.1765725461076329e-04  1.3656744033652146e-04  9.5044077840450455e-05  3.5961091048181500e-04  2.2141141759577810e-03  7.5300957184791786e-03  1.8175271612705147e-02  3.5289698364226373e-02  5.8575940358162278e-02  8.5812793358332473e-02  1.1289430566296857e-01  1.3456632269142088e-01  1.4566043124651173e-01  1.4246577195851967e-01  1.2407118870963177e-01  9.3490306458232919e-02  5.7761897772928880e-02  2.5938626442584305e-02  5.5584880640274304e-03  6.6082776745154503e-04  1.2464460366041877e-02  4.1233844260538166e-02  7.8899044240314922e-02  1.5464361607413241e-01  1.6235843380403181e-01  1.5662228135069212e-01  1.3547953403315985e-01  1.0337229569197372e-01  6.7055936749040590e-02  3.4065938748961549e-02  1.0671999237220177e-02  7.1219430135106105e-04  5.2943751130061414e-03  2.2836468282859797e-02  4.9324080999045485e-02  7.9093346869098288e-02  1.0620754270553899e-01  1.2585741107761764e-01  1.3521886882826059e-01  1.3370997523056175e-01  1.2278149861296880e-01  1.0531867736267567e-01  8.4794822336070386e-02  6.4435600820758235e-02  4.6623427495352150e-02  3.2640813794265679e-02  2.2746389599664948e-02  1.6499352336674464e-02  1.3184710625513520e-02  1.2180687501120406e-02  1.3159167276371501e-02  1.6086124330963306e-02  2.1060716375325455e-02  2.8080705465144046e-02  3.6834988330110299e-02  4.6599053194541398e-02  5.6262112759487219e-02  6.4473602744169772e-02  6.9881941299689790e-02  7.1443428819187707e-02  6.8760506294650622e-02  6.2310021550811320e-02  5.3334902022263306e-02  4.3365047792214471e-02  3.3694361995396063e-02  2.5143602521739999e-02  1.8104870177431800e-02  1.2678157004231274e-02  8.7775896584621951e-03  6.2015672821641677e-03  4.7003689222648399e-03  4.0504204146356157e-03  4.1162177193711019e-03  4.8774827796471080e-03  6.4151921895040480e-03  8.8682663370100185e-03  1.2380687500471749e-02  1.7056222576227541e-02  2.2929647000604007e-02  2.9954142217285505e-02  3.7999011617436802e-02  4.6852766908595911e-02  5.6230173900141199e-02  6.5779605513274525e-02  7.5082071468705228e-02  8.3645537069555492e-02  9.0922732379433741e-02  9.6368997056140007e-02  9.9506666555423617e-02  9.9955124116219873e-02  9.7442079109733487e-02  9.1847060777692432e-02  8.3296587440884501e-02  7.2268937750602211e-02  5.9625205709892951e-02  4.6502029695999349e-02  3.4084388685304209e-02  2.3355342273609254e-02  1.4919129976459035e-02  8.9366731418464608e-03  5.1711612545243370e-03  3.1329046862875508e-03  2.3023047138299620e-03  2.3799723099558910e-03  3.4834461821034259e-03  6.2076261202649264e-03  1.1498724551951185e-02  2.0345828294194825e-02  3.3347847960182642e-02  5.0258035069473218e-02  6.9653010367795962e-02  8.8898273959324897e-02  1.0451913053774363e-01  1.1293400388115044e-01  1.1139223754013214e-01  9.8940226841760640e-02  7.7188267809138927e-02  5.0467029551254178e-02  2.4929567698539906e-02  6.7315564594793266e-03  2.9704957880868552e-04  7.6692320337914044e-03  2.9334831817955282e-02  5.8445968991392823e-02  9.2488418170707867e-02  1.0289881651827114e-01  1.0606139911172756e-01  9.8503903014372146e-02  8.1945307387780442e-02  5.9779775782388932e-02  3.6525282837253085e-02  1.6746245570875451e-02  4.0595230713130785e-03  4.8952651284004864e-04  6.2401031269435879e-03  1.9786700486902814e-02  3.8219356566641084e-02  5.7862053965523269e-02  7.5120252059272932e-02  8.7288185092542714e-02  9.3014615366455972e-02  9.2338141954203173e-02  8.6396306271805820e-02  7.6967853333128028e-02  6.5990848719565981e-02  5.5166931900342268e-02  4.5721890164398760e-02  3.8344642494174005e-02  3.3275292094854587e-02  3.0471570417359550e-02  2.9769907309261847e-02  3.0978355987270417e-02  3.3880856446571815e-02  3.8175348313720277e-02  4.3395330012281783e-02  4.8867865837603788e-02  5.3743928318088115e-02  5.7110358366083490e-02  5.8166429766376565e-02  5.6424349099549437e-02  5.1872135774737836e-02  4.5026656474328734e-02  3.6823181432465275e-02  2.8357337316948821e-02  2.0589951800795661e-02  1.4149942917433008e-02  9.2888875712657405e-03  5.9489767620373047e-03  3.8830213935056894e-03  2.7865646105971874e-03  2.4179730051480499e-03  2.6818293440964082e-03  3.6521233870497713e-03  5.5281717801862855e-03  8.5413086903535895e-03  1.2847463602024439e-02  1.8442099950386127e-02  2.5123493294874125e-02  3.2513164545253485e-02  4.0123007900362134e-02  4.7444790793031204e-02  5.4035592412735159e-02  5.9580343596062277e-02  6.3922106980407817e-02  6.7057916632828438e-02  6.9104669329511773e-02  7.0246160116094289e-02  7.0674930382587431e-02  7.0540474921330726e-02  6.9913019203184643e-02  6.8770180086154778e-02  6.7009556743907087e-02  6.4484791152203472e-02  6.1058310854805307e-02  5.6660143659984348e-02  5.1338232241127067e-02  4.5284101461660758e-02  3.8822119696923174e-02  3.2361683367689867e-02  2.6325254553077077e-02  2.1074492695621179e-02  1.6857892194921033e-02  1.3797428490593041e-02  1.1920922892081185e-02  1.1231985320169172e-02  1.1792635815652989e-02  1.3781171530712479e-02  1.7487188267679053e-02  2.3220756347978582e-02  3.1140886734707066e-02  4.1042245053092584e-02  5.2169961237073147e-02  6.3149465325867696e-02  7.2106315422005018e-02  7.7001386367023861e-02  7.6135467383274036e-02  6.8714387611732430e-02  5.5322201772018992e-02  3.8118961119315377e-02  2.0588803122684539e-02  6.7994234305146653e-03  3.9648910159352984e-04  3.7127322147429424e-03  1.7702722094775764e-02  3.7551574508849002e-02  4.2156274876790037e-02  5.2098135337123014e-02  6.0105337543376984e-02  6.2430819064168398e-02  5.8672063804549958e-02  4.9546071597148876e-02  3.6897821714857580e-02  2.3261844589644944e-02  1.1299094644023377e-02  3.2336843935118417e-03  4.3129313079985236e-04  3.2075080239196219e-03  1.0867257664870315e-02  2.1922794403344496e-02  3.4440320377082154e-02  4.6464605594754509e-02  5.6426335855500116e-02  6.3409814038415405e-02  6.7210923154999658e-02  6.8210171479230655e-02  6.7148275622074954e-02  6.4894982743461727e-02  6.2268567203475025e-02  5.9925471544105408e-02  5.8312922701958772e-02  5.7663722067312261e-02  5.8009495085383070e-02  5.9195034178298266e-02  6.0889300143239906e-02  6.2602432663941984e-02  6.3726038525310294e-02  6.3611792973329195e-02  6.1690524165159979e-02  5.7613527904344160e-02  5.1376826536959373e-02  4.3378421535651440e-02  3.4369803575442288e-02  2.5299061574041746e-02  1.7089766278619165e-02  1.0430037366355109e-02  5.6399062235180288e-03  2.6499706817080166e-03  1.0864202474036844e-03  4.3221010602521734e-04  2.1980036203015667e-04  2.0322774545712642e-04  4.5808544947108286e-04  1.3732867267578852e-03  3.5306154275099684e-03  7.5066040716460216e-03  1.3657313045256071e-02  2.1950401292884409e-02  3.1895265548504116e-02  4.2596466769277593e-02  5.2919802666641591e-02  6.1724233702219897e-02  6.8094279087920581e-02  7.1513222943404814e-02  7.1938248930871918e-02  6.9765102243231111e-02  6.5699496667605203e-02  6.0579513487943069e-02  5.5205037634411251e-02  5.0218808053931835e-02  4.6055699536257516e-02  4.2948991178331244e-02  4.0967491362275406e-02  4.0057525884690519e-02  4.0073613345082290e-02  4.0794646373606566e-02  4.1933390248692116e-02  4.3152324590122415e-02  4.4096442660434804e-02  4.4444555088367248e-02  4.3968890163887740e-02  4.2584320203450189e-02  4.0368711488044197e-02  3.7545735308761263e-02  3.4436100773767707e-02  3.1394668307707839e-02  2.8753779577011789e-02  2.6787247732521006e-02  2.5698462152712449e-02  2.5624417123298208e-02  2.6639194267730728e-02  2.8739217578956529e-02  3.1800920259418212e-02  3.5519048379505369e-02  3.9355829336469854e-02  4.2545164608828186e-02  4.4186413807009661e-02  4.3429230539891631e-02  3.9715860787475903e-02  3.3027411506597583e-02  2.4067763898105266e-02  1.4303740746473502e-02  5.7877164265252318e-03  7.5625558578687197e-04  1.0828828755467376e-03  7.9836926679824633e-03  1.9063908373277063e-02  1.0743767387349636e-02  1.7329653951084920e-02  2.5415497786987758e-02  3.2387415949491363e-02  3.6885850304836744e-02  3.7929623851138808e-02  3.5264498508337641e-02  2.9422124568337184e-02  2.1586400886268661e-02  1.3320902756673048e-02  6.2420951247349763e-03  1.7073663409314761e-03  5.8031697913709572e-04  3.1274940662724456e-03  9.0542138383358402e-03  1.7633728039220257e-02  2.7881336133510931e-02  3.8753587624434226e-02  4.9351579921198929e-02  5.9071379236009573e-02  6.7639467850501928e-02  7.5033044448235289e-02  8.1350111538797759e-02  8.6696918842914486e-02  9.1119113985273018e-02  9.4567974229252075e-02  9.6885021285689626e-02  9.7800034323592633e-02  9.6952812503890637e-02  9.3953915298312915e-02  8.8488485832171906e-02  8.0444661163360340e-02  7.0027358397008438e-02  5.7813426336801053e-02  4.4717949967905436e-02  3.1866532051720298e-02  2.0396513064780592e-02  1.1233612088233797e-02  4.9010253876631332e-03  1.4117141536715448e-03  2.7598590536846354e-04  6.3254790045905662e-04  1.4839101794332575e-03  1.9865582558631356e-03  1.7194218147910179e-03  8.4493172203493395e-04  9.9211885169983531e-05  6.0201540976518968e-04  3.5397549133429451e-03  9.8121306747949843e-03  1.9731146730361651e-02  3.2839659806146192e-02  4.7896770058601323e-02  6.3056074865893375e-02  7.6223473783399512e-02  8.5521601714153572e-02  8.9730045396432145e-02  8.8554067493230346e-02  8.2630748286606007e-02  7.3289530448740328e-02  6.2176220931881181e-02  5.0875678511671858e-02  4.0635109469083115e-02  3.2234544806636345e-02  2.6002170613988958e-02  2.1936977423056742e-02  1.9878795757656258e-02  1.9659584659940228e-02  2.1184100323545181e-02  2.4419270015187379e-02  2.9308011905925892e-02  3.5651334798552148e-02  4.3013426152691950e-02  5.0696715262053202e-02  5.7811717289932112e-02  6.3434666864198727e-02  6.6809261024268748e-02  6.7520216496171362e-02  6.5570547708018068e-02  6.1342340015559119e-02  5.5479450314351593e-02  4.8749677082825744e-02  4.1917186063517006e-02  3.5629224615385702e-02  3.0328833935756909e-02  2.6220669434732127e-02  2.3298472561168730e-02  2.1406093864232398e-02  2.0294010673023874e-02  1.9653919135798725e-02  1.9137273642400199e-02  1.8374965748193691e-02  1.7018041336978314e-02  1.4813704044412167e-02  1.1710653031088609e-02  7.9589410290061540e-03  4.1547835538754008e-03  1.1922578364906029e-03  1.0048272815850810e-04  1.8775833700281901e-03  6.0746197588432485e-03  5.5564830922239850e-04  1.5625638161473722e-03  5.4025627557480671e-03  1.1653333834150653e-02  1.9179224134142501e-02  2.6458349665340157e-02  3.1935458203458479e-02  3.4425179777200943e-02  3.3408232857397961e-02  2.9108473591254482e-02  2.2394669829252280e-02  1.4615005812872421e-02  7.3785813481781213e-03  2.2566427265652104e-03  4.8777084186695202e-04  2.8165262134335475e-03  9.4608963271570080e-03  2.0120152531377122e-02  3.4025246929954768e-02  5.0117011932349922e-02  6.7316286617416732e-02  8.46875496811