<?xml version="1.0"?>
<VTKFile type="UnstructuredGrid"  version="0.1"  >
<UnstructuredGrid>
<Piece  NumberOfPoints="20201" NumberOfCells="40000">
<Points>
<DataArray  type="Float64"  NumberOfComponents="3"  format="ascii">0 0 0  2 0 0  4 0 0  6 0 0  8 0 0  10 0 0  12 0 0  14 0 0  16 0 0  18 0 0  20 0 0  22 0 0  24 0 0  26 0 0  28 0 0  30 0 0  32 0 0  34 0 0  36 0 0  38 0 0  40 0 0  42 0 0  44 0 0  46 0 0  48 0 0  50 0 0  52 0 0  54 0 0  56 0 0  58 0 0  60 0 0  62 0 0  64 0 0  66 0 0  68 0 0  70 0 0  72 0 0  74 0 0  76 0 0  78 0 0  80 0 0  82 0 0  84 0 0  86 0 0  88 0 0  90 0 0  92 0 0  94 0 0  96 0 0  98 0 0  100 0 0  102 0 0  104 0 0  106 0 0  108 0 0  110 0 0  112 0 0  114 0 0  116 0 0  118 0 0  120 0 0  122 0 0  124 0 0  126 0 0  128 0 0  130 0 0  132 0 0  134 0 0  136 0 0  138 0 0  140 0 0  142 0 0  144 0 0  146 0 0  148 0 0  150 0 0  152 0 0  154 0 0  156 0 0  158 0 0  160 0 0  162 0 0  164 0 0  166 0 0  168 0 0  170 0 0  172 0 0  174 0 0  176 0 0  178 0 0  180 0 0  182 0 0  184 0 0  186 0 0  188 0 0  190 0 0  192 0 0  194 0 0  196 0 0  198 0 0  200 0 0  0 2 0  2 2 0  4 2 0  6 2 0  8 2 0  10 2 0  12 2 0  14 2 0  16 2 0  18 2 0  20 2 0  22 2 0  24 2 0  26 2 0  28 2 0  30 2 0  32 2 0  34 2 0  36 2 0  38 2 0  40 2 0  42 2 0  44 2 0  46 2 0  48 2 0  50 2 0  52 2 0  54 2 0  56 2 0  58 2 0  60 2 0  62 2 0  64 2 0  66 2 0  68 2 0  70 2 0  72 2 0  74 2 0  76 2 0  78 2 0  80 2 0  82 2 0  84 2 0  86 2 0  88 2 0  90 2 0  92 2 0  94 2 0  96 2 0  98 2 0  100 2 0  102 2 0  104 2 0  106 2 0  108 2 0  110 2 0  112 2 0  114 2 0  116 2 0  118 2 0  120 2 0  122 2 0  124 2 0  126 2 0  128 2 0  130 2 0  132 2 0  134 2 0  136 2 0  138 2 0  140 2 0  142 2 0  144 2 0  146 2 0  148 2 0  150 2 0  152 2 0  154 2 0  156 2 0  158 2 0  160 2 0  162 2 0  164 2 0  166 2 0  168 2 0  170 2 0  172 2 0  174 2 0  176 2 0  178 2 0  180 2 0  182 2 0  184 2 0  186 2 0  188 2 0  190 2 0  192 2 0  194 2 0  196 2 0  198 2 0  200 2 0  0 4 0  2 4 0  4 4 0  6 4 0  8 4 0  10 4 0  12 4 0  14 4 0  16 4 0  18 4 0  20 4 0  22 4 0  24 4 0  26 4 0  28 4 0  30 4 0  32 4 0  34 4 0  36 4 0  38 4 0  40 4 0  42 4 0  44 4 0  46 4 0  48 4 0  50 4 0  52 4 0  54 4 0  56 4 0  58 4 0  60 4 0  62 4 0  64 4 0  66 4 0  68 4 0  70 4 0  72 4 0  74 4 0  76 4 0  78 4 0  80 4 0  82 4 0  84 4 0  86 4 0  88 4 0  90 4 0  92 4 0  94 4 0  96 4 0  98 4 0  100 4 0  102 4 0  104 4 0  106 4 0  108 4 0  110 4 0  112 4 0  114 4 0  116 4 0  118 4 0  120 4 0  122 4 0  124 4 0  126 4 0  128 4 0  130 4 0  132 4 0  134 4 0  136 4 0  138 4 0  140 4 0  142 4 0  144 4 0  146 4 0  148 4 0  150 4 0  152 4 0  154 4 0  156 4 0  158 4 0  160 4 0  162 4 0  164 4 0  166 4 0  168 4 0  170 4 0  172 4 0  174 4 0  176 4 0  178 4 0  180 4 0  182 4 0  184 4 0  186 4 0  188 4 0  190 4 0  192 4 0  194 4 0  196 4 0  198 4 0  200 4 0  0 6 0  2 6 0  4 6 0  6 6 0  8 6 0  10 6 0  12 6 0  14 6 0  16 6 0  18 6 0  20 6 0  22 6 0  24 6 0  26 6 0  28 6 0  30 6 0  32 6 0  34 6 0  36 6 0  38 6 0  40 6 0  42 6 0  44 6 0  46 6 0  48 6 0  50 6 0  52 6 0  54 6 0  56 6 0  58 6 0  60 6 0  62 6 0  64 6 0  66 6 0  68 6 0  70 6 0  72 6 0  74 6 0  76 6 0  78 6 0  80 6 0  82 6 0  84 6 0  86 6 0  88 6 0  90 6 0  92 6 0  94 6 0  96 6 0  98 6 0  100 6 0  102 6 0  104 6 0  106 6 0  108 6 0  110 6 0  112 6 0  114 6 0  116 6 0  118 6 0  120 6 0  122 6 0  124 6 0  126 6 0  128 6 0  130 6 0  132 6 0  134 6 0  136 6 0  138 6 0  140 6 0  142 6 0  144 6 0  146 6 0  148 6 0  150 6 0  152 6 0  154 6 0  156 6 0  158 6 0  160 6 0  162 6 0  164 6 0  166 6 0  168 6 0  170 6 0  172 6 0  174 6 0  176 6 0  178 6 0  180 6 0  182 6 0  184 6 0  186 6 0  188 6 0  190 6 0  192 6 0  194 6 0  196 6 0  198 6 0  200 6 0  0 8 0  2 8 0  4 8 0  6 8 0  8 8 0  10 8 0  12 8 0  14 8 0  16 8 0  18 8 0  20 8 0  22 8 0  24 8 0  26 8 0  28 8 0  30 8 0  32 8 0  34 8 0  36 8 0  38 8 0  40 8 0  42 8 0  44 8 0  46 8 0  48 8 0  50 8 0  52 8 0  54 8 0  56 8 0  58 8 0  60 8 0  62 8 0  64 8 0  66 8 0  68 8 0  70 8 0  72 8 0  74 8 0  76 8 0  78 8 0  80 8 0  82 8 0  84 8 0  86 8 0  88 8 0  90 8 0  92 8 0  94 8 0  96 8 0  98 8 0  100 8 0  102 8 0  104 8 0  106 8 0  108 8 0  110 8 0  112 8 0  114 8 0  116 8 0  118 8 0  120 8 0  122 8 0  124 8 0  126 8 0  128 8 0  130 8 0  132 8 0  134 8 0  136 8 0  138 8 0  140 8 0  142 8 0  144 8 0  146 8 0  148 8 0  150 8 0  152 8 0  154 8 0  156 8 0  158 8 0  160 8 0  162 8 0  164 8 0  166 8 0  168 8 0  170 8 0  172 8 0  174 8 0  176 8 0  178 8 0  180 8 0  182 8 0  184 8 0  186 8 0  188 8 0  190 8 0  192 8 0  194 8 0  196 8 0  198 8 0  200 8 0  0 10 0  2 10 0  4 10 0  6 10 0  8 10 0  10 10 0  12 10 0  14 10 0  16 10 0  18 10 0  20 10 0  22 10 0  24 10 0  26 10 0  28 10 0  30 10 0  32 10 0  34 10 0  36 10 0  38 10 0  40 10 0  42 10 0  44 10 0  46 10 0  48 10 0  50 10 0  52 10 0  54 10 0  56 10 0  58 10 0  60 10 0  62 10 0  64 10 0  66 10 0  68 10 0  70 10 0  72 10 0  74 10 0  76 10 0  78 10 0  80 10 0  82 10 0  84 10 0  86 10 0  88 10 0  90 10 0  92 10 0  94 10 0  96 10 0  98 10 0  100 10 0  102 10 0  104 10 0  106 10 0  108 10 0  110 10 0  112 10 0  114 10 0  116 10 0  118 10 0  120 10 0  122 10 0  124 10 0  126 10 0  128 10 0  130 10 0  132 10 0  134 10 0  136 10 0  138 10 0  140 10 0  142 10 0  144 10 0  146 10 0  148 10 0  150 10 0  152 10 0  154 10 0  156 10 0  158 10 0  160 10 0  162 10 0  164 10 0  166 10 0  168 10 0  170 10 0  172 10 0  174 10 0  176 10 0  178 10 0  180 10 0  182 10 0  184 10 0  186 10 0  188 10 0  190 10 0  192 10 0  194 10 0  196 10 0  198 10 0  200 10 0  0 12 0  2 12 0  4 12 0  6 12 0  8 12 0  10 12 0  12 12 0  14 12 0  16 12 0  18 12 0  20 12 0  22 12 0  24 12 0  26 12 0  28 12 0  30 12 0  32 12 0  34 12 0  36 12 0  38 12 0  40 12 0  42 12 0  44 12 0  46 12 0  48 12 0  50 12 0  52 12 0  54 12 0  56 12 0  58 12 0  60 12 0  62 12 0  64 12 0  66 12 0  68 12 0  70 12 0  72 12 0  74 12 0  76 12 0  78 12 0  80 12 0  82 12 0  84 12 0  86 12 0  88 12 0  90 12 0  92 12 0  94 12 0  96 12 0  98 12 0  100 12 0  102 12 0  104 12 0  106 12 0  108 12 0  110 12 0  112 12 0  114 12 0  116 12 0  118 12 0  120 12 0  122 12 0  124 12 0  126 12 0  128 12 0  130 12 0  132 12 0  134 12 0  136 12 0  138 12 0  140 12 0  142 12 0  144 12 0  146 12 0  148 12 0  150 12 0  152 12 0  154 12 0  156 12 0  158 12 0  160 12 0  162 12 0  164 12 0  166 12 0  168 12 0  170 12 0  172 12 0  174 12 0  176 12 0  178 12 0  180 12 0  182 12 0  184 12 0  186 12 0  188 12 0  190 12 0  192 12 0  194 12 0  196 12 0  198 12 0  200 12 0  0 14 0  2 14 0  4 14 0  6 14 0  8 14 0  10 14 0  12 14 0  14 14 0  16 14 0  18 14 0  20 14 0  22 14 0  24 14 0  26 14 0  28 14 0  30 14 0  32 14 0  34 14 0  36 14 0  38 14 0  40 14 0  42 14 0  44 14 0  46 14 0  48 14 0  50 14 0  52 14 0  54 14 0  56 14 0  58 14 0  60 14 0  62 14 0  64 14 0  66 14 0  68 14 0  70 14 0  72 14 0  74 14 0  76 14 0  78 14 0  80 14 0  82 14 0  84 14 0  86 14 0  88 14 0  90 14 0  92 14 0  94 14 0  96 14 0  98 14 0  100 14 0  102 14 0  104 14 0  106 14 0  108 14 0  110 14 0  112 14 0  114 14 0  116 14 0  118 14 0  120 14 0  122 14 0  124 14 0  126 14 0  128 14 0  130 14 0  132 14 0  134 14 0  136 14 0  138 14 0  140 14 0  142 14 0  144 14 0  146 14 0  148 14 0  150 14 0  152 14 0  154 14 0  156 14 0  158 14 0  160 14 0  162 14 0  164 14 0  166 14 0  168 14 0  170 14 0  172 14 0  174 14 0  176 14 0  178 14 0  180 14 0  182 14 0  184 14 0  186 14 0  188 14 0  190 14 0  192 14 0  194 14 0  196 14 0  198 14 0  200 14 0  0 16 0  2 16 0  4 16 0  6 16 0  8 16 0  10 16 0  12 16 0  14 16 0  16 16 0  18 16 0  20 16 0  22 16 0  24 16 0  26 16 0  28 16 0  30 16 0  32 16 0  34 16 0  36 16 0  38 16 0  40 16 0  42 16 0  44 16 0  46 16 0  48 16 0  50 16 0  52 16 0  54 16 0  56 16 0  58 16 0  60 16 0  62 16 0  64 16 0  66 16 0  68 16 0  70 16 0  72 16 0  74 16 0  76 16 0  78 16 0  80 16 0  82 16 0  84 16 0  86 16 0  88 16 0  90 16 0  92 16 0  94 16 0  96 16 0  98 16 0  100 16 0  102 16 0  104 16 0  106 16 0  108 16 0  110 16 0  112 16 0  114 16 0  116 16 0  118 16 0  120 16 0  122 16 0  124 16 0  126 16 0  128 16 0  130 16 0  132 16 0  134 16 0  136 16 0  138 16 0  140 16 0  142 16 0  144 16 0  146 16 0  148 16 0  150 16 0  152 16 0  154 16 0  156 16 0  158 16 0  160 16 0  162 16 0  164 16 0  166 16 0  168 16 0  170 16 0  172 16 0  174 16 0  176 16 0  178 16 0  180 16 0  182 16 0  184 16 0  186 16 0  188 16 0  190 16 0  192 16 0  194 16 0  196 16 0  198 16 0  200 16 0  0 18 0  2 18 0  4 18 0  6 18 0  8 18 0  10 18 0  12 18 0  14 18 0  16 18 0  18 18 0  20 18 0  22 18 0  24 18 0  26 18 0  28 18 0  30 18 0  32 18 0  34 18 0  36 18 0  38 18 0  40 18 0  42 18 0  44 18 0  46 18 0  48 18 0  50 18 0  52 18 0  54 18 0  56 18 0  58 18 0  60 18 0  62 18 0  64 18 0  66 18 0  68 18 0  70 18 0  72 18 0  74 18 0  76 18 0  78 18 0  80 18 0  82 18 0  84 18 0  86 18 0  88 18 0  90 18 0  92 18 0  94 18 0  96 18 0  98 18 0  100 18 0  102 18 0  104 18 0  106 18 0  108 18 0  110 18 0  112 18 0  114 18 0  116 18 0  118 18 0  120 18 0  122 18 0  124 18 0  126 18 0  128 18 0  130 18 0  132 18 0  134 18 0  136 18 0  138 18 0  140 18 0  142 18 0  144 18 0  146 18 0  148 18 0  150 18 0  152 18 0  154 18 0  156 18 0  158 18 0  160 18 0  162 18 0  164 18 0  166 18 0  168 18 0  170 18 0  172 18 0  174 18 0  176 18 0  178 18 0  180 18 0  182 18 0  184 18 0  186 18 0  188 18 0  190 18 0  192 18 0  194 18 0  196 18 0  198 18 0  200 18 0  0 20 0  2 20 0  4 20 0  6 20 0  8 20 0  10 20 0  12 20 0  14 20 0  16 20 0  18 20 0  20 20 0  22 20 0  24 20 0  26 20 0  28 20 0  30 20 0  32 20 0  34 20 0  36 20 0  38 20 0  40 20 0  42 20 0  44 20 0  46 20 0  48 20 0  50 20 0  52 20 0  54 20 0  56 20 0  58 20 0  60 20 0  62 20 0  64 20 0  66 20 0  68 20 0  70 20 0  72 20 0  74 20 0  76 20 0  78 20 0  80 20 0  82 20 0  84 20 0  86 20 0  88 20 0  90 20 0  92 20 0  94 20 0  96 20 0  98 20 0  100 20 0  102 20 0  104 20 0  106 20 0  108 20 0  110 20 0  112 20 0  114 20 0  116 20 0  118 20 0  120 20 0  122 20 0  124 20 0  126 20 0  128 20 0  130 20 0  132 20 0  134 20 0  136 20 0  138 20 0  140 20 0  142 20 0  144 20 0  146 20 0  148 20 0  150 20 0  152 20 0  154 20 0  156 20 0
[...]
<PointData  Scalars="f_271-2"> 
<DataArray  type="Float64"  Name="f_271-2"  format="ascii">2.1478452278698867e-01  2.0997290741986366e-01  1.8798361012906128e-01  1.4243564214355098e-01  8.5594463729211132e-02  3.8682860395253101e-02  1.1458018546558471e-02  3.4437984866733623e-03  1.2422474839372649e-02  3.4331683968201930e-02  6.2576472443547609e-02  9.2174154988160117e-02  1.2067888243577483e-01  1.4512574741383083e-01  1.6069513751476661e-01  1.6233910218371306e-01  1.4840791606819811e-01  1.2269096027286634e-01  9.1993725860800443e-02  6.2387819212512706e-02  3.7737274884321791e-02  1.9814002696882878e-02  8.6107140729136267e-03  2.8235553562080398e-03  5.7678177789989918e-04  8.7065894052794438e-05  9.4323433694613938e-05  7.4462408669377533e-05  2.4053970217945435e-04  1.3402920619963485e-03  4.3354587846606094e-03  1.0097439211264136e-02  1.9214018028637755e-02  3.1897213428199900e-02  4.7830946133277742e-02  6.5582508631269312e-02  8.1355294551301444e-02  8.8952364771860165e-02  8.4460553336765179e-02  7.1539329152769851e-02  5.8107607460184313e-02  4.8839117231750696e-02  4.3515113741087248e-02  3.9498132614592313e-02  3.4262002249269785e-02  2.7226360567219117e-02  1.9448466582948829e-02  1.2291994403527890e-02  6.6994060181031290e-03  3.0065287658625445e-03  1.0138819501019618e-03  2.1479501734369621e-04  4.1575481384305851e-05  5.6572608746729436e-05  8.5334593704624180e-05  2.8803681428544672e-04  1.1498490938339841e-03  3.3513611134049848e-03  7.4448885391267270e-03  1.3412114637550182e-02  2.0970921535864766e-02  3.1180183489287798e-02  4.6052904790934296e-02  6.3180956247049710e-02  7.4609884622599223e-02  7.8009805353786557e-02  7.8042336031499487e-02  7.7959758877094276e-02  7.7489901022750593e-02  7.3805904049296447e-02  6.3655731654550934e-02  4.7443419715872223e-02  2.9924778528996276e-02  1.5718582361872978e-02  6.4387570149967302e-03  1.6938788667680989e-03  4.3001694440725381e-04  1.2560910240412078e-03  2.5805836747049633e-03  3.0947485248249873e-03  2.3448711929960537e-03  9.8444524228761838e-04  5.9785214400647965e-04  3.2354147617073971e-03  1.0903245053558750e-02  2.5050911034739751e-02  4.5641121715808114e-02  6.9746940954391060e-02  9.1386533934264755e-02  1.0419054650387917e-01  1.0453216041349599e-01  9.1510631965825845e-02  6.5207788613990514e-02  3.2484900317189633e-02  1.1004908710291420e-02  2.6526766115923411e-03  2.9185942522725803e-04  8.2959025040335176e-04  3.5158684598369685e-03  9.0861798284746984e-03  1.4785689894021230e-02  2.0992591457872090e-01  2.0604047422437710e-01  1.8600645834772950e-01  1.4329938662472338e-01  8.8786601747546351e-02  4.2175780359575442e-02  1.3630564467204070e-02  3.4534005498780425e-03  9.8412854630775658e-03  2.9547958063809460e-02  5.6722127273947771e-02  8.5997454549540539e-02  1.1420413875331724e-01  1.3819329797574262e-01  1.5345710099821233e-01  1.5546461328756675e-01  1.4280747401437796e-01  1.1892877166088262e-01  9.0037674355799985e-02  6.1819992804069378e-02  3.8026322141946935e-02  2.0474520212847888e-02  9.2889888588040120e-03  3.3252277937887210e-03  8.4496918798735875e-04  1.6408815805919752e-04  8.6298894737405415e-05  1.1616271690619373e-04  4.5792029740690575e-04  1.8157901647679103e-03  5.0814941563692055e-03  1.1038330459750115e-02  2.0172174118787599e-02  3.2577085220093394e-02  4.7797743408625151e-02  6.4269831798171098e-02  7.8240571014615651e-02  8.3977306885890238e-02  7.8242082474263425e-02  6.4945569024258715e-02  5.1692527563070245e-02  4.2670564345888083e-02  3.7471406474770763e-02  3.3644420684961554e-02  2.8920185424346292e-02  2.2781065356768271e-02  1.6147523532592838e-02  1.0160180951260707e-02  5.5595721861764532e-03  2.5625045605136352e-03  9.5090703185879638e-04  2.8441263407936025e-04  1.1575049648631337e-04  1.4609962525229789e-04  3.2098629926502920e-04  8.6889208992778420e-04  2.2713926625107790e-03  5.1334364582079142e-03  9.8924924576973966e-03  1.6456377396342821e-02  2.4536484822066003e-02  3.5042760191956950e-02  4.9496886813215034e-02  6.5310411272535951e-02  7.5581314261831720e-02  7.8530743524428390e-02  7.8309125140426136e-02  7.7826685650671634e-02  7.6740806155968705e-02  7.2424531242433976e-02  6.2129304272970871e-02  4.6446547358196151e-02  2.9675201887768451e-02  1.5959062250597029e-02  6.8217308703131252e-03  1.9653652473613746e-03  4.3660068685394030e-04  9.5288127551395967e-04  2.0492449812705084e-03  2.5120191620302506e-03  1.8980062070329351e-03  7.8349870059037552e-04  6.2806957320818966e-04  3.3626520565412229e-03  1.0913505989699453e-02  2.4708574689740210e-02  4.4829844227451621e-02  6.8761470708530642e-02  9.1111896559916444e-02  1.0567516542493426e-01  1.0810321690052539e-01  9.6479255249508497e-02  7.0878288276218435e-02  3.7763908099566389e-02  1.3844329819658524e-02  3.6781724697249416e-03  4.8429494457789558e-04  6.4645979902889876e-04  3.1580022787642010e-03  8.5778674624924691e-03  1.4122283714892020e-02  1.9220301181369343e-01  1.8966420496426148e-01  1.7302827600803619e-01  1.3665920497048401e-01  8.9166682822422225e-02  4.6120836327312155e-02  1.7180202523296786e-02  4.0649020306042939e-03  5.8790094021401616e-03  2.0739414827082789e-02  4.4579354605436161e-02  7.2110744051647274e-02  9.8939925886352781e-02  1.2137501932503707e-01  1.3553440837629555e-01  1.3808391958465360e-01  1.2823033084024962e-01  1.0871064031093973e-01  8.4364980654089552e-02  5.9870726183362276e-02  3.8567289187452940e-02  2.2265567931927559e-02  1.1341227445367391e-02  5.0340762055071280e-03  1.9883249622678059e-03  8.2205340292744846e-04  5.3491741599515552e-04  7.0757505645896608e-04  1.4972168690942419e-03  3.4586445446861962e-03  7.2715230006077363e-03  1.3482670451511709e-02  2.2336821680806120e-02  3.3679355404757590e-02  4.6797964237698796e-02  5.9984251413298995e-02  6.9913129212183497e-02  7.2285837806441086e-02  6.5377227096748231e-02  5.2985752206721512e-02  4.1230030100669446e-02  3.3132074788356281e-02  2.8155215535934211e-02  2.4441290676989004e-02  2.0421635695659555e-02  1.5764982026722763e-02  1.1072845704452820e-02  7.0348516078394714e-03  4.0382667047130340e-03  2.1285273881362535e-03  1.1065683663452322e-03  6.8999866684850398e-04  6.5535406280356186e-04  9.2373126279388096e-04  1.5964139570731667e-03  2.9498019915836890e-03  5.3880652286502802e-03  9.3342395286984282e-03  1.5030173564070042e-02  2.2345978668995830e-02  3.1061507553792479e-02  4.1619081104861511e-02  5.4378844208643820e-02  6.6917459144706926e-02  7.4958556808420507e-02  7.7653475582333265e-02  7.7600405925237217e-02  7.6633006195267972e-02  7.4316743964772239e-02  6.8759534690757573e-02  5.8439888330424204e-02  4.4253063093500779e-02  2.9396696205134978e-02  1.6925038709585585e-02  8.1468051198189395e-03  2.9914659652642522e-03  7.6474078964693072e-04  4.5959837511761105e-04  9.2642863226558437e-04  1.2003995974857930e-03  8.9259968204833610e-04  4.1112792630742514e-04  8.9919780314328410e-04  3.9395074196126381e-03  1.1162414076058764e-02  2.3800683243403203e-02  4.2012911351518772e-02  6.3972569766053283e-02  8.5528101644627916e-02  1.0130229759512728e-01  1.0648947179399242e-01  9.8052009704007265e-02  7.5901648362500851e-02  4.5387901745196683e-02  1.9218184826496443e-02  5.7372821952658545e-03  9.4676340744259408e-04  4.8596686718719516e-04  2.8007786424065610e-03  8.0871279221328869e-03  1.3396509824046436e-02  1.5815290358428893e-01  1.5740188757685042e-01  1.4568971357872726e-01  1.1839917111414563e-01  8.1836610726912229e-02  4.6499819589581708e-02  2.0137976142901186e-02  5.5890689271358021e-03  3.1024299422493335e-03  1.1902392520315429e-02  2.9786777150945080e-02  5.2840416692235027e-02  7.6488527299838446e-02  9.6563193730037647e-02  1.0961411280236327e-01  1.1334871726196789e-01  1.0744202437705737e-01  9.3803371653287115e-02  7.5731430094644434e-02  5.6637724168017163e-02  3.9216474529217317e-02  2.5140196503979056e-02  1.5018158939565549e-02  8.5602279941046945e-03  4.9418720658383555e-03  3.2314039414351185e-03  2.7217140290269658e-03  3.0965874835444072e-03  4.4276838487258335e-03  7.0364749772954035e-03  1.1289078633184369e-02  1.7403490689176810e-02  2.5317980857133965e-02  3.4605346024525606e-02  4.4356968408465092e-02  5.2976069093224137e-02  5.8092573079040769e-02  5.7375157479656547e-02  5.0583072829217403e-02  4.0637167817872744e-02  3.1367094984975967e-02  2.4563268205947449e-02  1.9884944111086034e-02  1.6277561555235666e-02  1.2949878120545077e-02  9.7380337337107901e-03  6.8767948951028559e-03  4.6139347492540400e-03  3.0483647058149616e-03  2.1370600008150556e-03  1.7665740854250162e-03  1.8375053854863847e-03  2.3220222917236088e-03  3.2840723409093570e-03  4.8727010064827433e-03  7.2983626455893616e-03  1.0792973549174275e-02  1.5544212675481088e-02  2.1601561552850493e-02  2.8823396116362299e-02  3.7013105315861723e-02  4.6083874494209566e-02  5.5586592824971588e-02  6.3979868761339501e-02  6.9499013264500101e-02  7.1896788662071220e-02  7.2155612488236584e-02  7.0891159717047458e-02  6.7722184118644571e-02  6.1757785606348758e-02  5.2582318098935162e-02  4.1062013555711471e-02  2.9127386477948315e-02  1.8653973743847981e-02  1.0655171099514858e-02  5.3048944811423873e-03  2.2673252631966361e-03  9.2430191082041257e-04  5.3913253145225666e-04  4.7473185530528189e-04  4.4283777486342572e-04  6.7089488073215995e-04  1.9019883468948345e-03  5.2263310876162327e-03  1.1802380356604629e-02  2.2495770997774098e-02  3.7386612646816142e-02  5.5197419944565937e-02  7.3042215831474855e-02  8.6936043198248450e-02  9.2866575195762080e-02  8.7938210707285622e-02  7.1755962143525129e-02  4.7937278758902177e-02  2.4249979950208882e-02  8.5575890441716151e-03  1.7373689197798358e-03  4.4785322266769478e-04  2.5741271403093937e-03  7.8073547599608736e-03  1.2874570748290239e-02  1.1192679793547772e-01  1.1352670518126258e-01  1.0858836412244793e-01  9.2373854360952037e-02  6.8585279910795632e-02  4.3349068084168441e-02  2.2077779068767144e-02  7.9587576789161979e-03  2.2676330908765890e-03  5.1089165682720854e-03  1.5575164058811890e-02  3.1516565111139226e-02  4.9657971026613755e-02  6.6351221679134889e-02  7.8488762328610337e-02  8.4159853258300360e-02  8.2968791334872311e-02  7.5938477267004409e-02  6.5003560339675873e-02  5.2355330690536092e-02  3.9931236383940964e-02  2.9126508344159370e-02  2.0681690847707920e-02  1.4729734305150899e-02  1.0987081776512583e-02  9.0100846122104974e-03  8.4138338341485271e-03  8.9891186257906857e-03  1.0705068618389624e-02  1.3623458028252083e-02  1.7773204448789576e-02  2.3035066723914151e-02  2.9064702954336913e-02  3.5251982387159882e-02  4.0704806284303049e-02  4.4285461665269574e-02  4.4826831292553146e-02  4.1699150007438443e-02  3.5518253229510764e-02  2.8108735059633398e-02  2.1338075745781407e-02  1.6048848354912576e-02  1.2134989164466507e-02  9.1754348219930618e-03  6.8509827238325662e-03  5.0349783488701332e-03  3.7076578166697779e-03  2.8650068618050902e-03  2.4925458845248957e-03  2.5787067331269529e-03  3.1337065302640774e-03  4.1964089587072659e-03  5.8252180855822800e-03  8.0803320492358905e-03  1.1007382843095730e-02  1.4626733306483057e-02  1.8924636955199296e-02  2.3839450226349528e-02  2.9245739568724512e-02  3.4958788726323513e-02  4.0769936497559757e-02  4.6440843626415110e-02  5.1594031221871575e-02  5.5701442127699743e-02  5.8375357707138205e-02  5.9608208038891636e-02  5.9574774764895547e-02  5.8282767745503769e-02  5.5487234799681436e-02  5.0897918461566639e-02  4.4505407494732779e-02  3.6797317725712993e-02  2.8661905950817020e-02  2.1033992688079425e-02  1.4581758544582806e-02  9.6136167977685667e-03  6.1355810105669832e-03  3.9444717810217427e-03  2.7278529799960437e-03  2.1851000597910481e-03  2.1612954914227971e-03  2.7521959048066548e-03  4.3338408231667572e-03  7.4946147732039645e-03  1.2875665685478871e-02  2.0931512920427359e-02  3.1621033760717697e-02  4.4094890302533829e-02  5.6560998126931876e-02  6.6514929930545807e-02  7.1314632127212604e-02  6.8936736247985034e-02  5.8873808756084112e-02  4.2980963870407798e-02  2.5417157774727164e-02  1.1082924381365543e-02  2.9145730879707524e-03  5.5641888656259996e-04  2.3842285043242941e-03  7.5234801442171538e-03  1.2256120120052364e-02  6.5908566785350661e-02  6.9255267954227179e-02  7.0441977991360011e-02  6.4456379054823501e-02  5.2538134013822527e-02  3.7593555040875644e-02  2.2845730728298333e-02  1.0978941966689785e-02  3.7463743527858494e-03  1.9645008899392257e-03  5.6136152049873931e-03  1.3866567223638002e-02  2.5095050923445671e-02  3.7081682775155236e-02  4.7542954809586313e-02  5.4742535152238765e-02  5.7871476130215892e-02  5.7063590111189728e-02  5.3137856082948846e-02  4.7247277056399403e-02  4.0571546756087554e-02  3.4105264177932755e-02  2.8543352043213059e-02  2.4258161707276790e-02  2.1356259701335222e-02  1.9780808118447148e-02  1.9411256452993259e-02  2.0122438153320533e-02  2.1790793269533856e-02  2.4260005831884941e-02  2.7292173444154515e-02  3.0531214572907937e-02  3.3497039760376976e-02  3.5621146045918990e-02  3.6331463191933366e-02  3.5190147136987031e-02  3.2069888819051179e-02  2.7306577200763273e-02  2.1692049727227734e-02  1.6190839744044606e-02  1.1521920516636593e-02  7.9512813348187033e-03  5.4016608570570243e-03  3.6648711439799067e-03  2.5365783544652656e-03  1.8668744965085070e-03  1.5788916119263022e-03  1.6791401689845765e-03  2.2525870280610824e-03  3.4333119784238078e-03  5.3552579482449092e-03  8.0975121436347355e-03  1.1640647669317496e-02  1.5848496609157662e-02  2.0482231007306260e-02  2.5240794326921528e-02  2.9811833381926240e-02  3.3918560607517412e-02  3.7356737710337005e-02  4.0019906293011845e-02  4.1904801583887985e-02  4.3087506564184211e-02  4.3682931022653519e-02  4.3817531004031254e-02  4.3614781606463135e-02  4.3164458648072702e-02  4.2479801303284499e-02  4.1480260341226136e-02  4.0019659471390447e-02  3.7950025372561147e-02  3.5197423214749314e-02  3.1816915411725183e-02  2.7995976664077292e-02  2.4004811621462771e-02  2.0125883871472565e-02  1.6597848501881313e-02  1.3586686852426059e-02  1.1180437124822780e-02  9.4033077765990954e-03  8.2478497966686146e-03  7.7203816173333946e-03  7.8864626319477427e-03  8.8970209907540086e-03  1.0976881478648346e-02  1.4365085018210761e-02  1.9206232157448579e-02  2.5405016798299200e-02  3.2481511841719393e-02  3.9499986156031681e-02  4.5150705356775060e-02  4.8008840639059573e-02  4.6922772300555013e-02  4.1460015822933620e-02  3.2296710614681000e-02  2.1291569089494439e-02  1.0995182551386923e-02  3.7415516382242608e-03  7.5965059556681413e-04  1.9647061749649597e-03  6.5923367961808702e-03  1.0709658910948456e-02  3.0893677720310660e-02  3.4502947405566156e-02  3.8820270913122672e-02  3.9630898128509631e-02  3.6588260626944639e-02  3.0415262321335942e-02  2.2460210374269884e-02  1.4331526626942480e-02  7.5318308672786627e-03  3.1949614298796393e-03  1.9519624149453305e-03  3.8993990036264967e-03  8.6234333651685896e-03  1.5268877547918086e-02  2.2692243854945206e-02  2.9714707442559059e-02  3.5401036588734107e-02  3.9246418964581885e-02  4.1206541780186914e-02  4.1593333226899842e-02  4.0908253935454754e-02  3.9684317880352045e-02  3.8378032292108399e-02  3.7318599659740430e-02  3.6700633149300645e-02  3.6599880353432201e-02  3.6993321669292124e-02  3.7771981711122345e-02  3.8744825616237467e-02  3.9641559338248214e-02  4.0127083463488637e-02  3.9838986414445478e-02  3.8452419113868049e-02  3.5765190300968600e-02  3.1781107163744465e-02  2.6756715263732737e-02  2.1177516309191749e-02  1.5652566779161561e-02  1.0754393172527002e-02  6.8670692826945405e-03  4.1116066443533323e-03  2.3729271849752391e-03  1.3924186330647656e-03  8.7546477359103070e-04  5.8753027667697675e-04  4.2861725553288175e-04  4.7298539475529045e-04  9.5881122109657383e-04  2.2246372636446528e-03  4.6087137644008156e-03  8.3373783936355264e-03  1.3426806313507010e-02  1.9620714980031026e-02  2.6388509819222691e-02  3.3001705800908714e-02  3.8681654880498594e-02  4.2777982911467533e-02  4.4918090798573396e-02  4.5078051154506436e-02  4.3556105808876491e-02  4.0865103268286219e-02  3.7587964856406572e-02  3.4248976173060761e-02  3.1236511299816538e-02  2.8782662709195307e-02  2.6983613846923042e-02  2.5838178490381957e-02  2.5285355772131892e-02  2.5229742468414567e-02  2.5552584398030001e-02  2.6113232519134940e-02  2.6749205591180582e-02  2.7282707247990517e-02  2.7538118279308899e-02  2.7369975266574031e-02  2.6695021815789078e-02  2.5516295261102214e-02  2.3926334481981313e-02  2.2085516203319503e-02  2.0186595718542633e-02  1.8424435192809598e-02  1.6982111733227719e-02  1.6028446079263268e-02  1.5712958859773536e-02  1.6148545156824876e-02  1.7380721159165276e-02  1.9345655455573221e-02  2.1823632943670311e-02  2.4409882809409499e-02  2.6537039046992176e-02  2.7568429397628672e-02  2.6947039346627639e-02  2.4365754192257640e-02  1.9924316562797167e-02  1.4223069806873856e-02  8.3161926525874078e-03  3.4805867021767390e-03  8.5856792047601688e-04  1.1166360066636797e-03  4.2012262024986738e-03  7.0950607758726129e-03  1.0050271719767042e-02  1.2609321473472868e-02  1.6936251781559501e-02  2.0598581259444589e-02  2.2753001060791766e-02  2.2928093830909452e-02  2.1073484495861168e-02  1.7580324401463732e-02  1.3168304130800111e-02  8.7014430388569035e-03  5.0104448013077755e-03  2.7621762480158876e-03  2.3740875091978249e-03  3.9724937965558253e-03  7.4034381461284878e-03  1.2287673810122116e-02  1.8098129062553214e-02  2.4255111173649275e-02  3.0248796172996809e-02  3.5763836630213555e-02  4.0726183549336006e-02  4.5224772940418718e-02  4.9370456134960931e-02  5.3191183151620129e-02  5.6600845952823463e-02  5.9420763060778620e-02  6.1417231852207578e-02  6.2329558261145245e-02  6.1889729752634126e-02  5.9857538519131892e-02  5.6086756098988964e-02  5.0604496754225334e-02  4.3664822290659447e-02  3.5748174839525061e-02  2.7502423412445739e-02  1.9638801411740674e-02  1.2805874272360632e-02  7.4714909575975871e-03  3.8424514256663652e-03  1.8396387403855491e-03  1.1300634762765884e-03  1.2091461917871135e-03  1.5254798081538975e-03  1.6321683700858877e-03  1.3285639078061252e-03  7.3994399630684265e-04  2.9473881085661830e-04  6.0414451426687272e-04  2.2966691576103426e-03  5.8685771233115752e-03  1.1573027977856929e-02  1.9324184612127739e-02  2.8591338106570944e-02  3.8330949043118290e-02  4.7094749431693714e-02  5.3404381077780727e-02  5.6251390824132094e-02  5.5418732544955343e-02  5.1453255738116127e-02  4.5378567581867542e-02  3.8347607666615539e-02  3.1374971534496483e-02  2.5191688529463113e-02  2.0208836651110250e-02  1.6560788473918332e-02  1.4197293151855242e-02  1.2991517066223564e-02  1.2830948508729801e-02  1.3665286744644317e-02  1.5500534397459324e-02  1.8346738919619000e-02  2.2141093833235384e-02  2.6673951251881246e-02  3.1544862964851907e-02  3.6175619084710682e-02  3.9905003562066839e-02  4.2160919371019200e-02  4.2636614461420856e-02  4.1356466301836231e-02  3.8594155476231067e-02  3.4742578291523267e-02  3.0255225977661077e-02  2.5645661030357723e-02  2.1431207217518566e-02  1.8000061573057453e-02  1.5517533008828079e-02  1.3942823094629041e-02  1.3104081792481848e-02  1.2761692444040575e-02  1.2645079153839571e-02  1.2478754130084887e-02  1.2008391373782467e-02  1.1032413272925676e-02  9.4470243089114590e-03  7.3031164165161064e-03  4.8493649313920426e-03  2.5249550231667183e-03  8.8348883152112353e-04  4.6253927653631965e-04  1.5573244469062970e-03  2.8387142557077050e-03  2.4586188932102667e-03  3.0348394914807690e-03  4.9865707030237070e-03  8.2101855587990175e-03  1.2150894376896482e-02  1.6007371560485227e-02  1.8923560562335292e-02  2.0239625920011620e-02  1.9696873669391709e-02  1.7457177390724578e-02  1.3974658116749094e-02  9.8941194362481936e-03  6.0159631260829982e-03  3.1994293783058170e-03  2.1767318772839073e-03  3.4199632976934465e-03  7.1148948510060574e-03  1.3143011383428431e-02  2.1055865731834388e-02  3.0198154738573492e-02  4.0003281007854607e-02  5.01534060868