<?xml version="1.0"?>
<VTKFile type="UnstructuredGrid"  version="0.1"  >
<UnstructuredGrid>
<Piece  NumberOfPoints="20201" NumberOfCells="40000">
<Points>
<DataArray  type="Float64"  NumberOfComponents="3"  format="ascii">0 0 0  2 0 0  4 0 0  6 0 0  8 0 0  10 0 0  12 0 0  14 0 0  16 0 0  18 0 0  20 0 0  22 0 0  24 0 0  26 0 0  28 0 0  30 0 0  32 0 0  34 0 0  36 0 0  38 0 0  40 0 0  42 0 0  44 0 0  46 0 0  48 0 0  50 0 0  52 0 0  54 0 0  56 0 0  58 0 0  60 0 0  62 0 0  64 0 0  66 0 0  68 0 0  70 0 0  72 0 0  74 0 0  76 0 0  78 0 0  80 0 0  82 0 0  84 0 0  86 0 0  88 0 0  90 0 0  92 0 0  94 0 0  96 0 0  98 0 0  100 0 0  102 0 0  104 0 0  106 0 0  108 0 0  110 0 0  112 0 0  114 0 0  116 0 0  118 0 0  120 0 0  122 0 0  124 0 0  126 0 0  128 0 0  130 0 0  132 0 0  134 0 0  136 0 0  138 0 0  140 0 0  142 0 0  144 0 0  146 0 0  148 0 0  150 0 0  152 0 0  154 0 0  156 0 0  158 0 0  160 0 0  162 0 0  164 0 0  166 0 0  168 0 0  170 0 0  172 0 0  174 0 0  176 0 0  178 0 0  180 0 0  182 0 0  184 0 0  186 0 0  188 0 0  190 0 0  192 0 0  194 0 0  196 0 0  198 0 0  200 0 0  0 2 0  2 2 0  4 2 0  6 2 0  8 2 0  10 2 0  12 2 0  14 2 0  16 2 0  18 2 0  20 2 0  22 2 0  24 2 0  26 2 0  28 2 0  30 2 0  32 2 0  34 2 0  36 2 0  38 2 0  40 2 0  42 2 0  44 2 0  46 2 0  48 2 0  50 2 0  52 2 0  54 2 0  56 2 0  58 2 0  60 2 0  62 2 0  64 2 0  66 2 0  68 2 0  70 2 0  72 2 0  74 2 0  76 2 0  78 2 0  80 2 0  82 2 0  84 2 0  86 2 0  88 2 0  90 2 0  92 2 0  94 2 0  96 2 0  98 2 0  100 2 0  102 2 0  104 2 0  106 2 0  108 2 0  110 2 0  112 2 0  114 2 0  116 2 0  118 2 0  120 2 0  122 2 0  124 2 0  126 2 0  128 2 0  130 2 0  132 2 0  134 2 0  136 2 0  138 2 0  140 2 0  142 2 0  144 2 0  146 2 0  148 2 0  150 2 0  152 2 0  154 2 0  156 2 0  158 2 0  160 2 0  162 2 0  164 2 0  166 2 0  168 2 0  170 2 0  172 2 0  174 2 0  176 2 0  178 2 0  180 2 0  182 2 0  184 2 0  186 2 0  188 2 0  190 2 0  192 2 0  194 2 0  196 2 0  198 2 0  200 2 0  0 4 0  2 4 0  4 4 0  6 4 0  8 4 0  10 4 0  12 4 0  14 4 0  16 4 0  18 4 0  20 4 0  22 4 0  24 4 0  26 4 0  28 4 0  30 4 0  32 4 0  34 4 0  36 4 0  38 4 0  40 4 0  42 4 0  44 4 0  46 4 0  48 4 0  50 4 0  52 4 0  54 4 0  56 4 0  58 4 0  60 4 0  62 4 0  64 4 0  66 4 0  68 4 0  70 4 0  72 4 0  74 4 0  76 4 0  78 4 0  80 4 0  82 4 0  84 4 0  86 4 0  88 4 0  90 4 0  92 4 0  94 4 0  96 4 0  98 4 0  100 4 0  102 4 0  104 4 0  106 4 0  108 4 0  110 4 0  112 4 0  114 4 0  116 4 0  118 4 0  120 4 0  122 4 0  124 4 0  126 4 0  128 4 0  130 4 0  132 4 0  134 4 0  136 4 0  138 4 0  140 4 0  142 4 0  144 4 0  146 4 0  148 4 0  150 4 0  152 4 0  154 4 0  156 4 0  158 4 0  160 4 0  162 4 0  164 4 0  166 4 0  168 4 0  170 4 0  172 4 0  174 4 0  176 4 0  178 4 0  180 4 0  182 4 0  184 4 0  186 4 0  188 4 0  190 4 0  192 4 0  194 4 0  196 4 0  198 4 0  200 4 0  0 6 0  2 6 0  4 6 0  6 6 0  8 6 0  10 6 0  12 6 0  14 6 0  16 6 0  18 6 0  20 6 0  22 6 0  24 6 0  26 6 0  28 6 0  30 6 0  32 6 0  34 6 0  36 6 0  38 6 0  40 6 0  42 6 0  44 6 0  46 6 0  48 6 0  50 6 0  52 6 0  54 6 0  56 6 0  58 6 0  60 6 0  62 6 0  64 6 0  66 6 0  68 6 0  70 6 0  72 6 0  74 6 0  76 6 0  78 6 0  80 6 0  82 6 0  84 6 0  86 6 0  88 6 0  90 6 0  92 6 0  94 6 0  96 6 0  98 6 0  100 6 0  102 6 0  104 6 0  106 6 0  108 6 0  110 6 0  112 6 0  114 6 0  116 6 0  118 6 0  120 6 0  122 6 0  124 6 0  126 6 0  128 6 0  130 6 0  132 6 0  134 6 0  136 6 0  138 6 0  140 6 0  142 6 0  144 6 0  146 6 0  148 6 0  150 6 0  152 6 0  154 6 0  156 6 0  158 6 0  160 6 0  162 6 0  164 6 0  166 6 0  168 6 0  170 6 0  172 6 0  174 6 0  176 6 0  178 6 0  180 6 0  182 6 0  184 6 0  186 6 0  188 6 0  190 6 0  192 6 0  194 6 0  196 6 0  198 6 0  200 6 0  0 8 0  2 8 0  4 8 0  6 8 0  8 8 0  10 8 0  12 8 0  14 8 0  16 8 0  18 8 0  20 8 0  22 8 0  24 8 0  26 8 0  28 8 0  30 8 0  32 8 0  34 8 0  36 8 0  38 8 0  40 8 0  42 8 0  44 8 0  46 8 0  48 8 0  50 8 0  52 8 0  54 8 0  56 8 0  58 8 0  60 8 0  62 8 0  64 8 0  66 8 0  68 8 0  70 8 0  72 8 0  74 8 0  76 8 0  78 8 0  80 8 0  82 8 0  84 8 0  86 8 0  88 8 0  90 8 0  92 8 0  94 8 0  96 8 0  98 8 0  100 8 0  102 8 0  104 8 0  106 8 0  108 8 0  110 8 0  112 8 0  114 8 0  116 8 0  118 8 0  120 8 0  122 8 0  124 8 0  126 8 0  128 8 0  130 8 0  132 8 0  134 8 0  136 8 0  138 8 0  140 8 0  142 8 0  144 8 0  146 8 0  148 8 0  150 8 0  152 8 0  154 8 0  156 8 0  158 8 0  160 8 0  162 8 0  164 8 0  166 8 0  168 8 0  170 8 0  172 8 0  174 8 0  176 8 0  178 8 0  180 8 0  182 8 0  184 8 0  186 8 0  188 8 0  190 8 0  192 8 0  194 8 0  196 8 0  198 8 0  200 8 0  0 10 0  2 10 0  4 10 0  6 10 0  8 10 0  10 10 0  12 10 0  14 10 0  16 10 0  18 10 0  20 10 0  22 10 0  24 10 0  26 10 0  28 10 0  30 10 0  32 10 0  34 10 0  36 10 0  38 10 0  40 10 0  42 10 0  44 10 0  46 10 0  48 10 0  50 10 0  52 10 0  54 10 0  56 10 0  58 10 0  60 10 0  62 10 0  64 10 0  66 10 0  68 10 0  70 10 0  72 10 0  74 10 0  76 10 0  78 10 0  80 10 0  82 10 0  84 10 0  86 10 0  88 10 0  90 10 0  92 10 0  94 10 0  96 10 0  98 10 0  100 10 0  102 10 0  104 10 0  106 10 0  108 10 0  110 10 0  112 10 0  114 10 0  116 10 0  118 10 0  120 10 0  122 10 0  124 10 0  126 10 0  128 10 0  130 10 0  132 10 0  134 10 0  136 10 0  138 10 0  140 10 0  142 10 0  144 10 0  146 10 0  148 10 0  150 10 0  152 10 0  154 10 0  156 10 0  158 10 0  160 10 0  162 10 0  164 10 0  166 10 0  168 10 0  170 10 0  172 10 0  174 10 0  176 10 0  178 10 0  180 10 0  182 10 0  184 10 0  186 10 0  188 10 0  190 10 0  192 10 0  194 10 0  196 10 0  198 10 0  200 10 0  0 12 0  2 12 0  4 12 0  6 12 0  8 12 0  10 12 0  12 12 0  14 12 0  16 12 0  18 12 0  20 12 0  22 12 0  24 12 0  26 12 0  28 12 0  30 12 0  32 12 0  34 12 0  36 12 0  38 12 0  40 12 0  42 12 0  44 12 0  46 12 0  48 12 0  50 12 0  52 12 0  54 12 0  56 12 0  58 12 0  60 12 0  62 12 0  64 12 0  66 12 0  68 12 0  70 12 0  72 12 0  74 12 0  76 12 0  78 12 0  80 12 0  82 12 0  84 12 0  86 12 0  88 12 0  90 12 0  92 12 0  94 12 0  96 12 0  98 12 0  100 12 0  102 12 0  104 12 0  106 12 0  108 12 0  110 12 0  112 12 0  114 12 0  116 12 0  118 12 0  120 12 0  122 12 0  124 12 0  126 12 0  128 12 0  130 12 0  132 12 0  134 12 0  136 12 0  138 12 0  140 12 0  142 12 0  144 12 0  146 12 0  148 12 0  150 12 0  152 12 0  154 12 0  156 12 0  158 12 0  160 12 0  162 12 0  164 12 0  166 12 0  168 12 0  170 12 0  172 12 0  174 12 0  176 12 0  178 12 0  180 12 0  182 12 0  184 12 0  186 12 0  188 12 0  190 12 0  192 12 0  194 12 0  196 12 0  198 12 0  200 12 0  0 14 0  2 14 0  4 14 0  6 14 0  8 14 0  10 14 0  12 14 0  14 14 0  16 14 0  18 14 0  20 14 0  22 14 0  24 14 0  26 14 0  28 14 0  30 14 0  32 14 0  34 14 0  36 14 0  38 14 0  40 14 0  42 14 0  44 14 0  46 14 0  48 14 0  50 14 0  52 14 0  54 14 0  56 14 0  58 14 0  60 14 0  62 14 0  64 14 0  66 14 0  68 14 0  70 14 0  72 14 0  74 14 0  76 14 0  78 14 0  80 14 0  82 14 0  84 14 0  86 14 0  88 14 0  90 14 0  92 14 0  94 14 0  96 14 0  98 14 0  100 14 0  102 14 0  104 14 0  106 14 0  108 14 0  110 14 0  112 14 0  114 14 0  116 14 0  118 14 0  120 14 0  122 14 0  124 14 0  126 14 0  128 14 0  130 14 0  132 14 0  134 14 0  136 14 0  138 14 0  140 14 0  142 14 0  144 14 0  146 14 0  148 14 0  150 14 0  152 14 0  154 14 0  156 14 0  158 14 0  160 14 0  162 14 0  164 14 0  166 14 0  168 14 0  170 14 0  172 14 0  174 14 0  176 14 0  178 14 0  180 14 0  182 14 0  184 14 0  186 14 0  188 14 0  190 14 0  192 14 0  194 14 0  196 14 0  198 14 0  200 14 0  0 16 0  2 16 0  4 16 0  6 16 0  8 16 0  10 16 0  12 16 0  14 16 0  16 16 0  18 16 0  20 16 0  22 16 0  24 16 0  26 16 0  28 16 0  30 16 0  32 16 0  34 16 0  36 16 0  38 16 0  40 16 0  42 16 0  44 16 0  46 16 0  48 16 0  50 16 0  52 16 0  54 16 0  56 16 0  58 16 0  60 16 0  62 16 0  64 16 0  66 16 0  68 16 0  70 16 0  72 16 0  74 16 0  76 16 0  78 16 0  80 16 0  82 16 0  84 16 0  86 16 0  88 16 0  90 16 0  92 16 0  94 16 0  96 16 0  98 16 0  100 16 0  102 16 0  104 16 0  106 16 0  108 16 0  110 16 0  112 16 0  114 16 0  116 16 0  118 16 0  120 16 0  122 16 0  124 16 0  126 16 0  128 16 0  130 16 0  132 16 0  134 16 0  136 16 0  138 16 0  140 16 0  142 16 0  144 16 0  146 16 0  148 16 0  150 16 0  152 16 0  154 16 0  156 16 0  158 16 0  160 16 0  162 16 0  164 16 0  166 16 0  168 16 0  170 16 0  172 16 0  174 16 0  176 16 0  178 16 0  180 16 0  182 16 0  184 16 0  186 16 0  188 16 0  190 16 0  192 16 0  194 16 0  196 16 0  198 16 0  200 16 0  0 18 0  2 18 0  4 18 0  6 18 0  8 18 0  10 18 0  12 18 0  14 18 0  16 18 0  18 18 0  20 18 0  22 18 0  24 18 0  26 18 0  28 18 0  30 18 0  32 18 0  34 18 0  36 18 0  38 18 0  40 18 0  42 18 0  44 18 0  46 18 0  48 18 0  50 18 0  52 18 0  54 18 0  56 18 0  58 18 0  60 18 0  62 18 0  64 18 0  66 18 0  68 18 0  70 18 0  72 18 0  74 18 0  76 18 0  78 18 0  80 18 0  82 18 0  84 18 0  86 18 0  88 18 0  90 18 0  92 18 0  94 18 0  96 18 0  98 18 0  100 18 0  102 18 0  104 18 0  106 18 0  108 18 0  110 18 0  112 18 0  114 18 0  116 18 0  118 18 0  120 18 0  122 18 0  124 18 0  126 18 0  128 18 0  130 18 0  132 18 0  134 18 0  136 18 0  138 18 0  140 18 0  142 18 0  144 18 0  146 18 0  148 18 0  150 18 0  152 18 0  154 18 0  156 18 0  158 18 0  160 18 0  162 18 0  164 18 0  166 18 0  168 18 0  170 18 0  172 18 0  174 18 0  176 18 0  178 18 0  180 18 0  182 18 0  184 18 0  186 18 0  188 18 0  190 18 0  192 18 0  194 18 0  196 18 0  198 18 0  200 18 0  0 20 0  2 20 0  4 20 0  6 20 0  8 20 0  10 20 0  12 20 0  14 20 0  16 20 0  18 20 0  20 20 0  22 20 0  24 20 0  26 20 0  28 20 0  30 20 0  32 20 0  34 20 0  36 20 0  38 20 0  40 20 0  42 20 0  44 20 0  46 20 0  48 20 0  50 20 0  52 20 0  54 20 0  56 20 0  58 20 0  60 20 0  62 20 0  64 20 0  66 20 0  68 20 0  70 20 0  72 20 0  74 20 0  76 20 0  78 20 0  80 20 0  82 20 0  84 20 0  86 20 0  88 20 0  90 20 0  92 20 0  94 20 0  96 20 0  98 20 0  100 20 0  102 20 0  104 20 0  106 20 0  108 20 0  110 20 0  112 20 0  114 20 0  116 20 0  118 20 0  120 20 0  122 20 0  124 20 0  126 20 0  128 20 0  130 20 0  132 20 0  134 20 0  136 20 0  138 20 0  140 20 0  142 20 0  144 20 0  146 20 0  148 20 0  150 20 0  152 20 0  154 20 0  156 20 0
[...]
<PointData  Scalars="f_271-2"> 
<DataArray  type="Float64"  Name="f_271-2"  format="ascii">8.3074061084777330e-14  8.0889756169015244e-14  7.4727420113021135e-14  6.5661678314643340e-14  5.5192760024452875e-14  4.4910625629191933e-14  3.6180404259507401e-14  2.9924489981193770e-14  2.6531691862489064e-14  2.5881129863525638e-14  2.7444849520057765e-14  3.0430693813097720e-14  3.3936645949968570e-14  3.7098025061130684e-14  3.9213361493834082e-14  3.9834806407199907e-14  3.8810041958556485e-14  3.6269216080897764e-14  3.2562155950585278e-14  2.8163409943594071e-14  2.3569896580261044e-14  1.9215054607339637e-14  1.5415389033689901e-14  1.2354046885286698e-14  1.0095804245008754e-14  8.6213841891613893e-15  7.8670962275341307e-15  7.7576181559207320e-15  8.2239201696724142e-15  9.2035207050540093e-15  1.0625531479867840e-14  1.2387691618280121e-14  1.4336123632341012e-14  1.6259668211181401e-14  1.7907757852857053e-14  1.9032945797170115e-14  1.9447921420635721e-14  1.9076929169389997e-14  1.7979358512218324e-14  1.6332556609184132e-14  1.4378613492498518e-14  1.2356624362111231e-14  1.0447778654795927e-14  8.7521454449283652e-15  7.2989468253873471e-15  6.0769642223135106e-15  5.0662705565996120e-15  4.2570803667309676e-15  3.6502347170790272e-15  3.2389093207649905e-15  2.9655652313703424e-15  2.6243361622275963e-15  1.7367647982827281e-15  4.3847520251651412e-16  3.2638293557210214e-17  1.6148901681677352e-18  3.6425666131894669e-20  1.5460394246296754e-21  1.2731586594695774e-22  -6.0298007926298226e-22  6.5152875494880819e-21  2.0141018135258622e-19  8.8713233296953379e-19  2.2262452894165316e-19  9.2455441177752773e-21  1.6012807586577345e-22  -1.5955615081270419e-23  2.7860639927479143e-24  9.2083784896224583e-24  3.6751065080370556e-22  -2.1942660457959259e-21  1.7753782410604592e-19  5.4988890807611251e-18  1.8239229824279093e-16  1.7287192681151503e-15  4.0350523637405500e-15  4.8854533076815622e-15  4.8411085151189411e-15  4.6367573486113994e-15  4.6434387427502285e-15  5.0550392632588999e-15  5.9947043948245504e-15  7.5430575357954254e-15  9.7146889207394343e-15  1.2402716495855280e-14  1.5305274998761941e-14  1.7837260897047723e-14  1.9005824448936491e-14  1.7170730752461944e-14  1.0227350247094531e-14  1.9656789920943340e-15  7.3381949632009012e-17  1.1479222167704673e-18  -3.8471828251633195e-20  3.2034249738281478e-21  -1.5559883751496153e-22  8.3927834694114120e-24  -4.5064897748598997e-25  3.8300697070643228e-26  -5.5807236985925257e-27  -1.7813804724360633e-27  8.1039712719539244e-14  7.8918460521844886e-14  7.2932900213316086e-14  6.4123963128795485e-14  5.3945916213336612e-14  4.3941835037748273e-14  3.5439002968015396e-14  2.9337055422893347e-14  2.6018618700838709e-14  2.5371073024128626e-14  2.6885032265907553e-14  2.9792519157968127e-14  3.3216909392460765e-14  3.6316384130496524e-14  3.8406875688691175e-14  3.9050552936142539e-14  3.8097051703194799e-14  3.5671097027256248e-14  3.2111601858595405e-14  2.7879295689681848e-14  2.3456986128231970e-14  1.9265737724961822e-14  1.5612523664709073e-14  1.2673985580967853e-14  1.0510952445503996e-14  9.1020212777267089e-15  8.3825336747179604e-15  8.2769793755116559e-15  8.7168877010982142e-15  9.6413458469023810e-15  1.0982487399190218e-14  1.2642995057720734e-14  1.4476146480524723e-14  1.6280012967586417e-14  1.7814548051911229e-14  1.8842627014280136e-14  1.9185129247719103e-14  1.8770578070291588e-14  1.7657834500586072e-14  1.6019380970726235e-14  1.4089860338917091e-14  1.2100697281454558e-14  1.0227217682263406e-14  8.5664371906549558e-15  7.1471710637617175e-15  5.9594951233535006e-15  4.9853479709359212e-15  4.2165415554484731e-15  3.6549163856005366e-15  3.2943305506083052e-15  3.0788543393424662e-15  2.8077300317808393e-15  1.9865207999571807e-15  5.8746437756433652e-16  5.2148757039234655e-17  3.0771840126692943e-18  1.3003103284787645e-19  7.5508123381682881e-21  1.5259160425893137e-21  5.1110192788162003e-21  2.7411825937870963e-20  1.1434399357139693e-18  4.7852218028037193e-18  1.1518753450546533e-18  4.0296390228968733e-20  -2.2300936804481558e-22  7.4125626716656000e-23  5.6862155111351924e-25  1.5903578256282449e-23  8.2564632496714613e-22  -3.2766009453092142e-22  3.3357052827224238e-19  8.8254756362278814e-18  2.4388711395243510e-16  2.0346246530377707e-15  4.4106043244881511e-15  5.2366669072965560e-15  5.1829212994290690e-15  4.9704516753289083e-15  4.9569400083468548e-15  5.3307993179109850e-15  6.2139725356900882e-15  7.6881945564380895e-15  9.7712995743904086e-15  1.2363018057468004e-14  1.5174227943019661e-14  1.7644299066788669e-14  1.8830305847316870e-14  1.7206671676450277e-14  1.0763107666733816e-14  2.3947385449482000e-15  1.1040288946141102e-16  2.0587426245707629e-18  -1.3824300485961964e-20  3.3472503591826123e-21  -2.7082703221575599e-23  -3.8623168344230865e-24  2.0201912305497589e-24  -1.0183672477010422e-26  1.1772886238100691e-25  8.4284602216769773e-26  7.5250244585931311e-14  7.3307631224975112e-14  6.7823179387318509e-14  5.9743016844391771e-14  5.0391837279173499e-14  4.1180107562797541e-14  3.3327474939792793e-14  2.7668115401831633e-14  2.4565886353697297e-14  2.3930427671457517e-14  2.5304249434671073e-14  2.7987780089811689e-14  3.1176865831030477e-14  3.4095503343506853e-14  3.6110288898075443e-14  3.6813224064373981e-14  3.6060800430971721e-14  3.3963385088675410e-14  3.0829526094978414e-14  2.7080829629570731e-14  2.3159595605250311e-14  1.9450764578606669e-14  1.6232772136200139e-14  1.3661959243925103e-14  1.1785962189403668e-14  1.0575465626056888e-14  9.9615933353363928e-15  9.8675033220110333e-15  1.0226349660644121e-14  1.0982553475681064e-14  1.2078391471978796e-14  1.3432540768663620e-14  1.4920602014865749e-14  1.6368589712764687e-14  1.7567560362094664e-14  1.8310318969265133e-14  1.8441038122687612e-14  1.7899970791706377e-14  1.6743773226834469e-14  1.5130297754801931e-14  1.3272247766330228e-14  1.1378590956428523e-14  9.6075050141420095e-15  8.0470551335064673e-15  6.7248584937700156e-15  5.6348470675999721e-15  4.7646045523285384e-15  4.1108946337142632e-15  3.6787554224195830e-15  3.4641690821281706e-15  3.4158069398612078e-15  3.3494476591696845e-15  2.7676078831043771e-15  1.2121801723538309e-15  1.6901935959070842e-16  1.4474510525275556e-17  1.0844232550652980e-18  5.5366373847942044e-20  -1.0318473343765857e-20  -2.7347647373383259e-20  7.8755922067916780e-19  1.3444064127348518e-17  4.6343304435284394e-17  1.0091226920959057e-17  2.6839555568021225e-19  6.8050075217028916e-21  -7.8040673753536044e-23  1.1782206877660096e-22  3.8929988521363478e-22  3.1523706508419639e-21  4.7175080377640775e-20  1.4543934985040690e-18  2.9172116101677876e-17  5.3514800027031344e-16  3.0879376703660033e-15  5.5561469285095892e-15  6.3040563446477594e-15  6.2318528387643803e-15  6.0002916420507639e-15  5.9277894774065371e-15  6.1878405268398925e-15  6.9000230869094748e-15  8.1505027189327814e-15  9.9676039156984722e-15  1.2270779064444644e-14  1.4807094123422263e-14  1.7082853889212799e-14  1.8285559091363934e-14  1.7170287205842733e-14  1.2061611439232110e-14  3.8956838410092540e-15  3.0788202809776538e-16  8.9288141682186322e-18  2.4242124109772797e-19  1.7915432033808157e-20  -5.4089737455395731e-22  1.1453569797912396e-22  -1.8381023031231142e-23  -4.3546972017830520e-24  -3.2858760298249297e-24  -2.7245136124317352e-24  6.6570906798144903e-14  6.4893728724123091e-14  6.0154698024749016e-14  5.3161093388810118e-14  4.5047083144205581e-14  3.7026836897831907e-14  3.0158875403289962e-14  2.5177157881688898e-14  2.2413811451867252e-14  2.1807967665940079e-14  2.2976924919097324e-14  2.5322280387684366e-14  2.8149044427240223e-14  3.0782141811652430e-14  3.2667661914868371e-14  3.3446526804114231e-14  3.2989689249565480e-14  3.1389530463159096e-14  2.8911440509837136e-14  2.5919171614605623e-14  2.2793300900307894e-14  1.9861775845264055e-14  1.7355725383419170e-14  1.5395242864614291e-14  1.4001750409377261e-14  1.3127918806224025e-14  1.2693700135013743e-14  1.2617620509704761e-14  1.2835396101511954e-14  1.3302339540750263e-14  1.3981035565311428e-14  1.4820459874215775e-14  1.5736061055137174e-14  1.6601144203732842e-14  1.7257095986553982e-14  1.7543318268446996e-14  1.7338801918955526e-14  1.6599901890246911e-14  1.5377682761727868e-14  1.3805512465295647e-14  1.2060788922294603e-14  1.0316791807220279e-14  8.7045216419276970e-15  7.2978139540518565e-15  6.1223883303785057e-15  5.1785267248901203e-15  4.4633472744975468e-15  3.9823149366655107e-15  3.7463626544739031e-15  3.7551869573942228e-15  3.9641185351860020e-15  4.2151580346162957e-15  4.0763146514789952e-15  2.7473313171944432e-15  7.7747870210785577e-16  9.9167802157737418e-17  1.4033421975150591e-17  2.2479868947570171e-18  6.8788572450277769e-19  1.3704157438503677e-18  1.2466948178300436e-17  1.6813192927218836e-16  3.4328292735853337e-16  7.2946447519425262e-17  2.7449356722248219e-18  5.8725938069782473e-20  6.5954882377542730e-21  1.5347695053122172e-22  2.3690240274265476e-21  4.4925701431462740e-20  5.2308686383978899e-19  1.0289527328987068e-17  1.4416540714592819e-16  1.5500086622003638e-15  5.1528304104583034e-15  7.4817545317581324e-15  8.1216060916337615e-15  8.0512390969745532e-15  7.8038572818175658e-15  7.6378106629974530e-15  7.7064651697462472e-15  8.1292740510427705e-15  9.0032027794581270e-15  1.0376481816168933e-14  1.2201261655352064e-14  1.4279201715442658e-14  1.6210365321036748e-14  1.7350364333838909e-14  1.6775983865555950e-14  1.3308726954336073e-14  6.5323887483506392e-15  1.1043041105599164e-15  5.7400900313274086e-17  3.6754110708471662e-18  8.3790508652918930e-20  1.4347831988515167e-20  5.3907186939110091e-22  3.3155081948629150e-22  1.3242935724555464e-22  8.0027942128083939e-23  6.6390092744420503e-23  5.6217895930467502e-14  5.4853148388821767e-14  5.0993069919980072e-14  4.5285282956698440e-14  3.8643520269431886e-14  3.2052461004264366e-14  2.6378967739834756e-14  2.2233690821396446e-14  1.9904225970078309e-14  1.9357486232473797e-14  2.0294023046362535e-14  2.2233110600832853e-14  2.4610580848323835e-14  2.6875803595124650e-14  2.8576419492916232e-14  2.9419954833939552e-14  2.9303066390101155e-14  2.8304043682918562e-14  2.6641936253865498e-14  2.4613532942094681e-14  2.2524184221728867e-14  2.0628406934314909e-14  1.9091839430806411e-14  1.7979428367994968e-14  1.7267953245923706e-14  1.6875704291869031e-14  1.6699111763005617e-14  1.6645658342085426e-14  1.6654448898927305e-14  1.6699942559339028e-14  1.6779659604757892e-14  1.6891833190038775e-14  1.7012517646515558e-14  1.7082323302427501e-14  1.7009999630968153e-14  1.6693819326588478e-14  1.6053922278638463e-14  1.5062751995782302e-14  1.3760008399309563e-14  1.2244653568135390e-14  1.0647074514243310e-14  9.0939147287951722e-15  7.6808493779357248e-15  6.4631901952033825e-15  5.4642681604950129e-15  4.6931173465958574e-15  4.1603482386904067e-15  3.8842821936538393e-15  3.8849893771459109e-15  4.1675438005837902e-15  4.6941972614416387e-15  5.3348300326559242e-15  5.7609057572117316e-15  5.2522095569477783e-15  3.0968856898757139e-15  9.1783559705519717e-16  1.9027772058971760e-16  4.9605864709843135e-17  2.5655302441787891e-17  5.3454635575051949e-17  3.2682980542933608e-16  1.2695471654571185e-15  1.5593274871782823e-15  4.6282712504063313e-16  3.0320249226450463e-17  2.1489383831057451e-18  1.5816788622685649e-19  5.4062230180646270e-20  1.4028590768779742e-19  9.2581450820696601e-19  9.0798727500015804e-18  7.9439044692346122e-17  8.5624602717468114e-16  4.2343449228725005e-15  8.1960894509613575e-15  1.0135577971316405e-14  1.0728993966396944e-14  1.0723583993468401e-14  1.0482421240069481e-14  1.0193882727520292e-14  9.9918828323534281e-15  1.0002636593833225e-14  1.0344595328521882e-14  1.1098522487285770e-14  1.2262491822656509e-14  1.3705498655261879e-14  1.5131359994633422e-14  1.6062221607384865e-14  1.5851190738545675e-14  1.3746911001001021e-14  9.1691865530414327e-15  3.3534850277843919e-15  4.5940113102139553e-16  3.1863943720227139e-17  3.0403880494481432e-18  2.1776374903414188e-19  1.6898264312333332e-20  -1.9760804047214663e-21  -2.1063057701496854e-21  -1.4841944407750276e-21  -1.2755876039728395e-21  4.5497873676292316e-14  4.4450878111541185e-14  4.1487015025667814e-14  3.7097146614771462e-14  3.1976637520137160e-14  2.6879426772531160e-14  2.2474929519354280e-14  1.9240795554092445e-14  1.7408681484445290e-14  1.6963016129017527e-14  1.7681071754209410e-14  1.9198678101560844e-14  2.1087276025097928e-14  2.2930736497697264e-14  2.4392032532575397e-14  2.5260694078106619e-14  2.5473813466510430e-14  2.5107539462174723e-14  2.4342059149664271e-14  2.3409030894014265e-14  2.2534100852070001e-14  2.1887393865262448e-14  2.1552035786566503e-14  2.1516008990712988e-14  2.1687188208933952e-14  2.1926194452479128e-14  2.2087606491486167e-14  2.2058087803832939e-14  2.1781023025534886e-14  2.1261466007365752e-14  2.0551517923835571e-14  1.9722606703984083e-14  1.8835286690429459e-14  1.7917626904469180e-14  1.6959769446374051e-14  1.5925885656783474e-14  1.4777720133574783e-14  1.3499024613160153e-14  1.2109913118545814e-14  1.0665149022611610e-14  9.2384199420711756e-15  7.9014848793068680e-15  6.7088148909761729e-15  5.6941744094570207e-15  4.8783507698771049e-15  4.2813877729822369e-15  3.9312053678204210e-15  3.8632495834393664e-15  4.1102488778969003e-15  4.6842450552926284e-15  5.5527462714691351e-15  6.6058627865596229e-15  7.6006980025549858e-15  8.0638604860496654e-15  7.2313942184640809e-15  4.7770980122427645e-15  2.2992819228463066e-15  1.1503268813286854e-15  9.1098100967691559e-16  1.3609275516960997e-15  2.7857706814074972e-15  4.3201036408042305e-15  4.1294373325792423e-15  2.0393030975062108e-15  3.7026753485367143e-16  3.4112934510443587e-17  5.4156102210759048e-18  2.2247408860440666e-18  4.2080068801084435e-18  1.8185828304146773e-17  1.0874956341685012e-16  7.8782874862767257e-16  3.7449768362859207e-15  8.4615930206363265e-15  1.1771477846395236e-14  1.3439447236101185e-14  1.4154797868857459e-14  1.4317976192121871e-14  1.4122213057653530e-14  1.3687866653282706e-14  1.3135682537559006e-14  1.2610146785266483e-14  1.2266416237570197e-14  1.2233942991266433e-14  1.2570670247574113e-14  1.3221301474515767e-14  1.3991257711453127e-14  1.4545539426856303e-14  1.4440786946651139e-14  1.3200349813194822e-14  1.0455513053931470e-14  6.2776291930157793e-15  2.1959798832179639e-15  3.7703974334656362e-16  4.2273983219559116e-17  5.1413720708131492e-18  7.3454819283905027e-19  1.4949857220692112e-19  4.9297372850368453e-20  2.6330576698968120e-20  2.1520951658319636e-20  3.5564541145839743e-14  3.4805169726691905e-14  3.2655496517279187e-14  2.9471782555403409e-14  2.5759502025192450e-14  2.2067701687793900e-14  1.8884494733318123e-14  1.6557853636287850e-14  1.5255043184136325e-14  1.4961757520721476e-14  1.5513089662107222e-14  1.6644695124767572e-14  1.8052657765913621e-14  1.9452156606499010e-14  2.0626474179803851e-14  2.1459226541796957e-14  2.1944873091559134e-14  2.2176138008725096e-14  2.2311432618285511e-14  2.2529442712282762e-14  2.2980576859267641e-14  2.3745515117974385e-14  2.4809828346431712e-14  2.6060819827134277e-14  2.7308423752245847e-14  2.8326371623263055e-14  2.8903940043095502e-14  2.8894496892738477e-14  2.8247026421387100e-14  2.7011750374181069e-14  2.5319423301771825e-14  2.3342514112414490e-14  2.1251776980992478e-14  1.9181779338150643e-14  1.7214240265312278e-14  1.5380759759719376e-14  1.3679563951694239e-14  1.2096782023570290e-14  1.0622928396226730e-14  9.2594067547133517e-15  8.0158487370336555e-15  6.9037854740940320e-15  5.9330549422679983e-15  5.1142805655279190e-15  4.4659387496921963e-15  4.0210327198690547e-15  3.8280503051403820e-15  3.9433557229260068e-15  4.4155922473197962e-15  5.2651366754102637e-15  6.4620913800192654e-15  7.9045250368875311e-15  9.3955066048391119e-15  1.0617426818485189e-14  1.1126368368441572e-14  1.0479736556385955e-14  8.7779519472336646e-15  7.0915427610827577e-15  6.4039732514127395e-15  6.8355779501423359e-15  7.7130410346049481e-15  7.9960489682817036e-15  7.0979124913767908e-15  4.9137468247006600e-15  2.1888456720073083e-15  6.0992334563079857e-16  1.8409105797343476e-16  1.0792644380650714e-16  1.4664358678100044e-16  3.7886777139434610e-16  1.3300794572607336e-15  4.2179358294322024e-15  8.7742182022702923e-15  1.2795300896981298e-14  1.5547865340879167e-14  1.7327409059058936e-14  1.8390536811350568e-14  1.8848042265525250e-14  1.8746977296738783e-14  1.8148589398773503e-14  1.7170247190584535e-14  1.5989531091863931e-14  1.4817004986837180e-14  1.3849719358447937e-14  1.3220096401690072e-14  1.2954266908419359e-14  1.2950864376672201e-14  1.2987222274287011e-14  1.2756488051774904e-14  1.1936555813421731e-14  1.0286936562713947e-14  7.7675410903236876e-15  4.6898528947006752e-15  1.9703592857544777e-15  5.3668317048832008e-16  1.1489254443169841e-16  2.4207841161864830e-17  5.6849143011422847e-18  1.6141270100276178e-18  6.2114393649278114e-19  4.2051992926249905e-19  2.7250481763428262e-14  2.6724434348396375e-14  2.5238726916912885e-14  2.3049140285978569e-14  2.0516647387154992e-14  1.8029472453991843e-14  1.5926479257746241e-14  1.4440111010649270e-14  1.3669109676816868e-14  1.3581996659271415e-14  1.4045244125549695e-14  1.4866620095950042e-14  1.5843705373040995e-14  1.6808612512132028e-14  1.7661542027592856e-14  1.8387891227226053e-14  1.9056378720495327e-14  1.9798882207999454e-14  2.0775768347197604e-14  2.2132801435119198e-14  2.3957128655546337e-14  2.6240649480847650e-14  2.8859366129552263e-14  3.1576357509521052e-14  3.4072507949329839e-14  3.6002363885084898e-14  3.7063832180374302e-14  3.7063484840823191e-14  3.5958146423526153e-14  3.3860073784783782e-14  3.1005182992074183e-14  2.7696057065506730e-14  2.4238456272386593e-14  2.0889332045475092e-14  1.7827390999843873e-14  1.5147956374614575e-14  1.2876186700925106e-14  1.0989024399993984e-14  9.4369452438251089e-15  8.1603833005132854e-15  7.1003437893890271e-15  6.2058515360042335e-15  5.4411830795167636e-15  4.7936645472797321e-15  4.2799770441535029e-15  3.9473916620654880e-15  3.8670557070970796e-15  4.1187831697322658e-15  4.7694109698201659e-15  5.8486013464584131e-15  7.3266731479713698e-15  9.0987619578738929e-15  1.0978787491279723e-14  1.2707142374259811e-14  1.3981950606590497e-14  1.4540023025042998e-14  1.4310269111516845e-14  1.3562249031898370e-14  1.2768414815397309e-14  1.2147579797482268e-14  1.1519816138301020e-14  1.0603461683275838e-14  9.2227738131395432e-15  7.3373754713303407e-15  5.1056496782985869e-15  3.0647847605627844e-15  1.8299616812245448e-15  1.4438759149148512e-15  1.7684885297538836e-15  3.0176179730882148e-15  5.5938586996451648e-15  9.2895804737400326e-15  1.3153347373535729e-14  1.6574050791722282e-14  1.9438199001473052e-14  2.1721252084724406e-14  2.3351817281623072e-14  2.4225893819911400e-14  2.4269241766096113e-14  2.3493690461131641e-14  2.2023725516253159e-14  2.0085843873941772e-14  1.7965847416538760e-14  1.5947965859220127e-14  1.4253271550138595e-14  1.2993261331124185e-14  1.2149254234835478e-14  1.1581776608096641e-14  1.1068477320369452e-14  1.0364870829450069e-14  9.2778288090503777e-15  7.7348690765618613e-15  5.8281179630503485e-15  3.8138165564634450e-15  2.0810046897807866e-15  9.4467555963240266e-16  3.8289655406405248e-16  1.6298712577458411e-16  8.4821055865843325e-17  5.7178702765992075e-17  5.0176335889560118e-17  2.0997060981188231e-14  2.0638635698334737e-14  1.9633854634922138e-14  1.8176219593882472e-14  1.6534019877206598e-14  1.4986765928463379e-14  1.3764598617781430e-14  1.3006042232407309e-14  1.2742258040406797e-14  1.2907899278844964e-14  1.3372525117531386e-14  1.3983319160647847e-14  1.4609138333922768e-14  1.5176851500045877e-14  1.5693038810788117e-14  1.6247220112896300e-14  1.6996412398190374e-14  1.8134077079085895e-14  1.9848550599222768e-14  2.2276792471941089e-14  2.545964467