<?xml version="1.0"?>
<VTKFile type="UnstructuredGrid"  version="0.1"  >
<UnstructuredGrid>
<Piece  NumberOfPoints="20201" NumberOfCells="40000">
<Points>
<DataArray  type="Float64"  NumberOfComponents="3"  format="ascii">0 0 0  2 0 0  4 0 0  6 0 0  8 0 0  10 0 0  12 0 0  14 0 0  16 0 0  18 0 0  20 0 0  22 0 0  24 0 0  26 0 0  28 0 0  30 0 0  32 0 0  34 0 0  36 0 0  38 0 0  40 0 0  42 0 0  44 0 0  46 0 0  48 0 0  50 0 0  52 0 0  54 0 0  56 0 0  58 0 0  60 0 0  62 0 0  64 0 0  66 0 0  68 0 0  70 0 0  72 0 0  74 0 0  76 0 0  78 0 0  80 0 0  82 0 0  84 0 0  86 0 0  88 0 0  90 0 0  92 0 0  94 0 0  96 0 0  98 0 0  100 0 0  102 0 0  104 0 0  106 0 0  108 0 0  110 0 0  112 0 0  114 0 0  116 0 0  118 0 0  120 0 0  122 0 0  124 0 0  126 0 0  128 0 0  130 0 0  132 0 0  134 0 0  136 0 0  138 0 0  140 0 0  142 0 0  144 0 0  146 0 0  148 0 0  150 0 0  152 0 0  154 0 0  156 0 0  158 0 0  160 0 0  162 0 0  164 0 0  166 0 0  168 0 0  170 0 0  172 0 0  174 0 0  176 0 0  178 0 0  180 0 0  182 0 0  184 0 0  186 0 0  188 0 0  190 0 0  192 0 0  194 0 0  196 0 0  198 0 0  200 0 0  0 2 0  2 2 0  4 2 0  6 2 0  8 2 0  10 2 0  12 2 0  14 2 0  16 2 0  18 2 0  20 2 0  22 2 0  24 2 0  26 2 0  28 2 0  30 2 0  32 2 0  34 2 0  36 2 0  38 2 0  40 2 0  42 2 0  44 2 0  46 2 0  48 2 0  50 2 0  52 2 0  54 2 0  56 2 0  58 2 0  60 2 0  62 2 0  64 2 0  66 2 0  68 2 0  70 2 0  72 2 0  74 2 0  76 2 0  78 2 0  80 2 0  82 2 0  84 2 0  86 2 0  88 2 0  90 2 0  92 2 0  94 2 0  96 2 0  98 2 0  100 2 0  102 2 0  104 2 0  106 2 0  108 2 0  110 2 0  112 2 0  114 2 0  116 2 0  118 2 0  120 2 0  122 2 0  124 2 0  126 2 0  128 2 0  130 2 0  132 2 0  134 2 0  136 2 0  138 2 0  140 2 0  142 2 0  144 2 0  146 2 0  148 2 0  150 2 0  152 2 0  154 2 0  156 2 0  158 2 0  160 2 0  162 2 0  164 2 0  166 2 0  168 2 0  170 2 0  172 2 0  174 2 0  176 2 0  178 2 0  180 2 0  182 2 0  184 2 0  186 2 0  188 2 0  190 2 0  192 2 0  194 2 0  196 2 0  198 2 0  200 2 0  0 4 0  2 4 0  4 4 0  6 4 0  8 4 0  10 4 0  12 4 0  14 4 0  16 4 0  18 4 0  20 4 0  22 4 0  24 4 0  26 4 0  28 4 0  30 4 0  32 4 0  34 4 0  36 4 0  38 4 0  40 4 0  42 4 0  44 4 0  46 4 0  48 4 0  50 4 0  52 4 0  54 4 0  56 4 0  58 4 0  60 4 0  62 4 0  64 4 0  66 4 0  68 4 0  70 4 0  72 4 0  74 4 0  76 4 0  78 4 0  80 4 0  82 4 0  84 4 0  86 4 0  88 4 0  90 4 0  92 4 0  94 4 0  96 4 0  98 4 0  100 4 0  102 4 0  104 4 0  106 4 0  108 4 0  110 4 0  112 4 0  114 4 0  116 4 0  118 4 0  120 4 0  122 4 0  124 4 0  126 4 0  128 4 0  130 4 0  132 4 0  134 4 0  136 4 0  138 4 0  140 4 0  142 4 0  144 4 0  146 4 0  148 4 0  150 4 0  152 4 0  154 4 0  156 4 0  158 4 0  160 4 0  162 4 0  164 4 0  166 4 0  168 4 0  170 4 0  172 4 0  174 4 0  176 4 0  178 4 0  180 4 0  182 4 0  184 4 0  186 4 0  188 4 0  190 4 0  192 4 0  194 4 0  196 4 0  198 4 0  200 4 0  0 6 0  2 6 0  4 6 0  6 6 0  8 6 0  10 6 0  12 6 0  14 6 0  16 6 0  18 6 0  20 6 0  22 6 0  24 6 0  26 6 0  28 6 0  30 6 0  32 6 0  34 6 0  36 6 0  38 6 0  40 6 0  42 6 0  44 6 0  46 6 0  48 6 0  50 6 0  52 6 0  54 6 0  56 6 0  58 6 0  60 6 0  62 6 0  64 6 0  66 6 0  68 6 0  70 6 0  72 6 0  74 6 0  76 6 0  78 6 0  80 6 0  82 6 0  84 6 0  86 6 0  88 6 0  90 6 0  92 6 0  94 6 0  96 6 0  98 6 0  100 6 0  102 6 0  104 6 0  106 6 0  108 6 0  110 6 0  112 6 0  114 6 0  116 6 0  118 6 0  120 6 0  122 6 0  124 6 0  126 6 0  128 6 0  130 6 0  132 6 0  134 6 0  136 6 0  138 6 0  140 6 0  142 6 0  144 6 0  146 6 0  148 6 0  150 6 0  152 6 0  154 6 0  156 6 0  158 6 0  160 6 0  162 6 0  164 6 0  166 6 0  168 6 0  170 6 0  172 6 0  174 6 0  176 6 0  178 6 0  180 6 0  182 6 0  184 6 0  186 6 0  188 6 0  190 6 0  192 6 0  194 6 0  196 6 0  198 6 0  200 6 0  0 8 0  2 8 0  4 8 0  6 8 0  8 8 0  10 8 0  12 8 0  14 8 0  16 8 0  18 8 0  20 8 0  22 8 0  24 8 0  26 8 0  28 8 0  30 8 0  32 8 0  34 8 0  36 8 0  38 8 0  40 8 0  42 8 0  44 8 0  46 8 0  48 8 0  50 8 0  52 8 0  54 8 0  56 8 0  58 8 0  60 8 0  62 8 0  64 8 0  66 8 0  68 8 0  70 8 0  72 8 0  74 8 0  76 8 0  78 8 0  80 8 0  82 8 0  84 8 0  86 8 0  88 8 0  90 8 0  92 8 0  94 8 0  96 8 0  98 8 0  100 8 0  102 8 0  104 8 0  106 8 0  108 8 0  110 8 0  112 8 0  114 8 0  116 8 0  118 8 0  120 8 0  122 8 0  124 8 0  126 8 0  128 8 0  130 8 0  132 8 0  134 8 0  136 8 0  138 8 0  140 8 0  142 8 0  144 8 0  146 8 0  148 8 0  150 8 0  152 8 0  154 8 0  156 8 0  158 8 0  160 8 0  162 8 0  164 8 0  166 8 0  168 8 0  170 8 0  172 8 0  174 8 0  176 8 0  178 8 0  180 8 0  182 8 0  184 8 0  186 8 0  188 8 0  190 8 0  192 8 0  194 8 0  196 8 0  198 8 0  200 8 0  0 10 0  2 10 0  4 10 0  6 10 0  8 10 0  10 10 0  12 10 0  14 10 0  16 10 0  18 10 0  20 10 0  22 10 0  24 10 0  26 10 0  28 10 0  30 10 0  32 10 0  34 10 0  36 10 0  38 10 0  40 10 0  42 10 0  44 10 0  46 10 0  48 10 0  50 10 0  52 10 0  54 10 0  56 10 0  58 10 0  60 10 0  62 10 0  64 10 0  66 10 0  68 10 0  70 10 0  72 10 0  74 10 0  76 10 0  78 10 0  80 10 0  82 10 0  84 10 0  86 10 0  88 10 0  90 10 0  92 10 0  94 10 0  96 10 0  98 10 0  100 10 0  102 10 0  104 10 0  106 10 0  108 10 0  110 10 0  112 10 0  114 10 0  116 10 0  118 10 0  120 10 0  122 10 0  124 10 0  126 10 0  128 10 0  130 10 0  132 10 0  134 10 0  136 10 0  138 10 0  140 10 0  142 10 0  144 10 0  146 10 0  148 10 0  150 10 0  152 10 0  154 10 0  156 10 0  158 10 0  160 10 0  162 10 0  164 10 0  166 10 0  168 10 0  170 10 0  172 10 0  174 10 0  176 10 0  178 10 0  180 10 0  182 10 0  184 10 0  186 10 0  188 10 0  190 10 0  192 10 0  194 10 0  196 10 0  198 10 0  200 10 0  0 12 0  2 12 0  4 12 0  6 12 0  8 12 0  10 12 0  12 12 0  14 12 0  16 12 0  18 12 0  20 12 0  22 12 0  24 12 0  26 12 0  28 12 0  30 12 0  32 12 0  34 12 0  36 12 0  38 12 0  40 12 0  42 12 0  44 12 0  46 12 0  48 12 0  50 12 0  52 12 0  54 12 0  56 12 0  58 12 0  60 12 0  62 12 0  64 12 0  66 12 0  68 12 0  70 12 0  72 12 0  74 12 0  76 12 0  78 12 0  80 12 0  82 12 0  84 12 0  86 12 0  88 12 0  90 12 0  92 12 0  94 12 0  96 12 0  98 12 0  100 12 0  102 12 0  104 12 0  106 12 0  108 12 0  110 12 0  112 12 0  114 12 0  116 12 0  118 12 0  120 12 0  122 12 0  124 12 0  126 12 0  128 12 0  130 12 0  132 12 0  134 12 0  136 12 0  138 12 0  140 12 0  142 12 0  144 12 0  146 12 0  148 12 0  150 12 0  152 12 0  154 12 0  156 12 0  158 12 0  160 12 0  162 12 0  164 12 0  166 12 0  168 12 0  170 12 0  172 12 0  174 12 0  176 12 0  178 12 0  180 12 0  182 12 0  184 12 0  186 12 0  188 12 0  190 12 0  192 12 0  194 12 0  196 12 0  198 12 0  200 12 0  0 14 0  2 14 0  4 14 0  6 14 0  8 14 0  10 14 0  12 14 0  14 14 0  16 14 0  18 14 0  20 14 0  22 14 0  24 14 0  26 14 0  28 14 0  30 14 0  32 14 0  34 14 0  36 14 0  38 14 0  40 14 0  42 14 0  44 14 0  46 14 0  48 14 0  50 14 0  52 14 0  54 14 0  56 14 0  58 14 0  60 14 0  62 14 0  64 14 0  66 14 0  68 14 0  70 14 0  72 14 0  74 14 0  76 14 0  78 14 0  80 14 0  82 14 0  84 14 0  86 14 0  88 14 0  90 14 0  92 14 0  94 14 0  96 14 0  98 14 0  100 14 0  102 14 0  104 14 0  106 14 0  108 14 0  110 14 0  112 14 0  114 14 0  116 14 0  118 14 0  120 14 0  122 14 0  124 14 0  126 14 0  128 14 0  130 14 0  132 14 0  134 14 0  136 14 0  138 14 0  140 14 0  142 14 0  144 14 0  146 14 0  148 14 0  150 14 0  152 14 0  154 14 0  156 14 0  158 14 0  160 14 0  162 14 0  164 14 0  166 14 0  168 14 0  170 14 0  172 14 0  174 14 0  176 14 0  178 14 0  180 14 0  182 14 0  184 14 0  186 14 0  188 14 0  190 14 0  192 14 0  194 14 0  196 14 0  198 14 0  200 14 0  0 16 0  2 16 0  4 16 0  6 16 0  8 16 0  10 16 0  12 16 0  14 16 0  16 16 0  18 16 0  20 16 0  22 16 0  24 16 0  26 16 0  28 16 0  30 16 0  32 16 0  34 16 0  36 16 0  38 16 0  40 16 0  42 16 0  44 16 0  46 16 0  48 16 0  50 16 0  52 16 0  54 16 0  56 16 0  58 16 0  60 16 0  62 16 0  64 16 0  66 16 0  68 16 0  70 16 0  72 16 0  74 16 0  76 16 0  78 16 0  80 16 0  82 16 0  84 16 0  86 16 0  88 16 0  90 16 0  92 16 0  94 16 0  96 16 0  98 16 0  100 16 0  102 16 0  104 16 0  106 16 0  108 16 0  110 16 0  112 16 0  114 16 0  116 16 0  118 16 0  120 16 0  122 16 0  124 16 0  126 16 0  128 16 0  130 16 0  132 16 0  134 16 0  136 16 0  138 16 0  140 16 0  142 16 0  144 16 0  146 16 0  148 16 0  150 16 0  152 16 0  154 16 0  156 16 0  158 16 0  160 16 0  162 16 0  164 16 0  166 16 0  168 16 0  170 16 0  172 16 0  174 16 0  176 16 0  178 16 0  180 16 0  182 16 0  184 16 0  186 16 0  188 16 0  190 16 0  192 16 0  194 16 0  196 16 0  198 16 0  200 16 0  0 18 0  2 18 0  4 18 0  6 18 0  8 18 0  10 18 0  12 18 0  14 18 0  16 18 0  18 18 0  20 18 0  22 18 0  24 18 0  26 18 0  28 18 0  30 18 0  32 18 0  34 18 0  36 18 0  38 18 0  40 18 0  42 18 0  44 18 0  46 18 0  48 18 0  50 18 0  52 18 0  54 18 0  56 18 0  58 18 0  60 18 0  62 18 0  64 18 0  66 18 0  68 18 0  70 18 0  72 18 0  74 18 0  76 18 0  78 18 0  80 18 0  82 18 0  84 18 0  86 18 0  88 18 0  90 18 0  92 18 0  94 18 0  96 18 0  98 18 0  100 18 0  102 18 0  104 18 0  106 18 0  108 18 0  110 18 0  112 18 0  114 18 0  116 18 0  118 18 0  120 18 0  122 18 0  124 18 0  126 18 0  128 18 0  130 18 0  132 18 0  134 18 0  136 18 0  138 18 0  140 18 0  142 18 0  144 18 0  146 18 0  148 18 0  150 18 0  152 18 0  154 18 0  156 18 0  158 18 0  160 18 0  162 18 0  164 18 0  166 18 0  168 18 0  170 18 0  172 18 0  174 18 0  176 18 0  178 18 0  180 18 0  182 18 0  184 18 0  186 18 0  188 18 0  190 18 0  192 18 0  194 18 0  196 18 0  198 18 0  200 18 0  0 20 0  2 20 0  4 20 0  6 20 0  8 20 0  10 20 0  12 20 0  14 20 0  16 20 0  18 20 0  20 20 0  22 20 0  24 20 0  26 20 0  28 20 0  30 20 0  32 20 0  34 20 0  36 20 0  38 20 0  40 20 0  42 20 0  44 20 0  46 20 0  48 20 0  50 20 0  52 20 0  54 20 0  56 20 0  58 20 0  60 20 0  62 20 0  64 20 0  66 20 0  68 20 0  70 20 0  72 20 0  74 20 0  76 20 0  78 20 0  80 20 0  82 20 0  84 20 0  86 20 0  88 20 0  90 20 0  92 20 0  94 20 0  96 20 0  98 20 0  100 20 0  102 20 0  104 20 0  106 20 0  108 20 0  110 20 0  112 20 0  114 20 0  116 20 0  118 20 0  120 20 0  122 20 0  124 20 0  126 20 0  128 20 0  130 20 0  132 20 0  134 20 0  136 20 0  138 20 0  140 20 0  142 20 0  144 20 0  146 20 0  148 20 0  150 20 0  152 20 0  154 20 0  156 20 0
[...]
<PointData  Scalars="f_271-2"> 
<DataArray  type="Float64"  Name="f_271-2"  format="ascii">7.1949338559041385e-04  6.8045610763959154e-04  5.7491864903305245e-04  4.3293115886153916e-04  2.9033967808027089e-04  1.7466566649880865e-04  9.8488062659092199e-05  6.2106063560235042e-05  5.9676605548467682e-05  8.3464064567831373e-05  1.2532052706928858e-04  1.7676818796540886e-04  2.2874030157557916e-04  2.7172211657735038e-04  2.9709052165812259e-04  2.9955502982787944e-04  2.7913384317294188e-04  2.4101108479485282e-04  1.9329087531897048e-04  1.4417432592656263e-04  9.9978635271382046e-05  6.4367142835743927e-05  3.8465855368559896e-05  2.1477373478436923e-05  1.1520719462694773e-05  6.4732721191736397e-06  4.6281517580901003e-06  5.0632338864874306e-06  7.7121588985899256e-06  1.3197671260446778e-05  2.2520997744394196e-05  3.6679670030979924e-05  5.6199810133765487e-05  8.0480027553977561e-05  1.0694633305188153e-04  1.3051491497336311e-04  1.4447357201604515e-04  1.4351629210920705e-04  1.2756640389177115e-04  1.0298736067815533e-04  7.9077360094297427e-05  6.2279079555061870e-05  5.3164263561795728e-05  4.8189274246325819e-05  4.3461456258366615e-05  3.7085535162699761e-05  2.9252050728576569e-05  2.1181592635599065e-05  1.4107904168218968e-05  8.7631807428823500e-06  5.3130608502585933e-06  3.5399025618763200e-06  3.1025621971470396e-06  3.7634490162773289e-06  5.5143671487331730e-06  8.5211076700795784e-06  1.2678905503339570e-05  1.6149838163529082e-05  1.2933780763177790e-05  3.4809341217461484e-06  4.8475160641633236e-07  8.1387419802542322e-07  7.8015481625472669e-06  1.4741934173161402e-05  3.3293983136527028e-06  2.4760610487267966e-07  5.9538690544612693e-08  1.0937720348348627e-07  1.3009015765449652e-06  1.6752948414993833e-05  5.8756334630278902e-05  7.4929234942909732e-05  6.3706128944133924e-05  4.4662951885998931e-05  2.7488332114244063e-05  1.5408021324731354e-05  8.4367683156844998e-06  5.2199678117592043e-06  4.1205280481603398e-06  3.9266540052006028e-06  4.3370560971527698e-06  6.1942393202233044e-06  1.1398364533077242e-05  2.2485516732023719e-05  4.1863788500835875e-05  7.0678509812741410e-05  1.0743098136070244e-04  1.4691972433384770e-04  1.8039424569532507e-04  1.9724061780738384e-04  1.8706392750444337e-04  1.4053044543230531e-04  5.9733457385439750e-05  6.1128370783858762e-06  1.9708906240820193e-08  3.2109959077966960e-09  1.9551594315006802e-10  1.2705930756232252e-10  3.0885516931350115e-10  5.9177210483403209e-10  7.4569001328038767e-10  6.8500814601914130e-04  6.4862089874475985e-04  5.4994033672798410e-04  4.1641661921181606e-04  2.8128959638969565e-04  1.7063205843724719e-04  9.6867107424208383e-05  6.0860899914885703e-05  5.7488349254976443e-05  7.9622127171207366e-05  1.1956080944340220e-04  1.6912950270682453e-04  2.1949027980066433e-04  2.6137209804603587e-04  2.8641527934361919e-04  2.8949435113854636e-04  2.7056288776306029e-04  2.3450419062559313e-04  1.8901273829239972e-04  1.4192585026138779e-04  9.9332692437201697e-05  6.4818126910850795e-05  3.9549175458504392e-05  2.2842868609766764e-05  1.2958808564910337e-05  7.9019853230434792e-06  6.0544828906209944e-06  6.5326733086473774e-06  9.2577737996346937e-06  1.4796652206813266e-05  2.4062725879864342e-05  3.7946890914746354e-05  5.6868074344662450e-05  8.0153623989324149e-05  1.0526179208957238e-04  1.2732212169336158e-04  1.4001961800400031e-04  1.3846419751035080e-04  1.2273227852075330e-04  9.8922892728213821e-05  7.5824805505679937e-05  5.9500907853308673e-05  5.0495622606600807e-05  4.5495161719854634e-05  4.0852861780728201e-05  3.4782137378300013e-05  2.7440267707300194e-05  1.9945279481441292e-05  1.3430971343577791e-05  8.5710273118593321e-06  5.5208020922005479e-06  4.0875761536363960e-06  3.9694083998903664e-06  4.9620854622666861e-06  7.0721147456886022e-06  1.0464862784465410e-05  1.5071456018332742e-05  1.9361103488662531e-05  1.7985305309496934e-05  8.0723551066807667e-06  2.5777464522975278e-06  3.8791305336423504e-06  1.6742254259881826e-05  2.4311877404102035e-05  6.6815427236022476e-06  6.5987465596248141e-07  1.7471619108656724e-07  3.2583160201741726e-07  2.9461013193003383e-06  2.4382089749541527e-05  6.4601583986735719e-05  7.6135133151445994e-05  6.3894728628654897e-05  4.5039205408874094e-05  2.8157840799602676e-05  1.6193506125375970e-05  9.1559556119424920e-06  5.7752068421664168e-06  4.5108265982701673e-06  4.2200526530804035e-06  4.6187568857023402e-06  6.5055363295604349e-06  1.1683931111722306e-05  2.2564456065489115e-05  4.1438647118266672e-05  6.9400687421660793e-05  1.0503639676731815e-04  1.4341041515141188e-04  1.7618597088991174e-04  1.9321764788507179e-04  1.8468203958415651e-04  1.4238684453983424e-04  6.7349482256100229e-05  9.4503566706591559e-06  1.5963518032309114e-07  8.5459893964469061e-09  5.6701891450105724e-11  1.7358401950152897e-10  3.0911548577133792e-10  5.9974162815519260e-10  7.5566083864458451e-10  5.9139995325665411e-04  5.6192597392681518e-04  4.8125239413792417e-04  3.7024358972455437e-04  2.5535359965487506e-04  1.5866729199389296e-04  9.1944417243312518e-05  5.7373757974017117e-05  5.1662469638199052e-05  6.9299669285795800e-05  1.0382560884379103e-04  1.4797580534233167e-04  1.9364791557415154e-04  2.3231945753808187e-04  2.5637605848580322e-04  2.6112851723024877e-04  2.4633385315925944e-04  2.1604442140667275e-04  1.7683030559822172e-04  1.3552217800289834e-04  9.7564056575289554e-05  6.6300771340778832e-05  4.2989170842234251e-05  2.7244154278293183e-05  1.7702520249034707e-05  1.2716328571431293e-05  1.0910789746627087e-05  1.1506566685048528e-05  1.4388569967548256e-05  1.9968528189370180e-05  2.8920186463054636e-05  4.1850272494308050e-05  5.8904337907025017e-05  7.9250857686379115e-05  1.0048425106317198e-04  1.1835852358889955e-04  1.2765216728409379e-04  1.2457650424241840e-04  1.0957119170837748e-04  8.7973998194822663e-05  6.7174304996915369e-05  5.2207776319639558e-05  4.3550836816535311e-05  3.8511696917328972e-05  3.4104711805156467e-05  2.8836332044325737e-05  2.2782506961354887e-05  1.6801875730287308e-05  1.1779446372227075e-05  8.2480268145284297e-06  6.3424888070639116e-06  5.9320938741752968e-06  6.8031908461550803e-06  8.8149130437501917e-06  1.1982319267060450e-05  1.6437565993621751e-05  2.2160591245985071e-05  2.8244238372711380e-05  3.1536962484668880e-05  2.7535068771681221e-05  2.1588577236525645e-05  2.7511437044017202e-05  4.7282873405393574e-05  5.2029385607619511e-05  2.5822198385515492e-05  6.9151087204167685e-06  2.9875966049465559e-06  4.4717134240203486e-06  1.6028756595921825e-05  4.8972817307638883e-05  7.6572343736953328e-05  7.8088917062013271e-05  6.4161195404797660e-05  4.6193482911940304e-05  3.0333416534585106e-05  1.8843743186333308e-05  1.1733109514275621e-05  7.9636209571288574e-06  6.2608204475219345e-06  5.6750882469863419e-06  5.9759060286612016e-06  7.8490188467597688e-06  1.2838689852123764e-05  2.3012226103739663e-05  4.0336310423773039e-05  6.5751189055947195e-05  9.8050829426927637e-05  1.3300376272803359e-04  1.6340364516144302e-04  1.8041452238688459e-04  1.7568504465164604e-04  1.4336849264264426e-04  8.4057182276207391e-05  2.3182641325119017e-05  1.8127998469921103e-06  5.1720208168129432e-08  4.3911134594652450e-09  3.2186544959530317e-10  4.0663050684199386e-10  6.9118418688394812e-10  8.5802528160768306e-10  4.6364054345966553e-04  4.4292221632272514e-04  3.8533825791454301e-04  3.0389658044739664e-04  2.1652230480435233e-04  1.3976762806627908e-04  8.3909076637427374e-05  5.2381322222608125e-05  4.4070962038260968e-05  5.5567821952772079e-05  8.2170106705006994e-05  1.1806740624418840e-04  1.5644912072131439e-04  1.9005274940608091e-04  2.1238992547904323e-04  2.1936771372676339e-04  2.1043804588755728e-04  1.8848447158877348e-04  1.5850296480764730e-04  1.2588981332867810e-04  9.5129629680367652e-05  6.9159110752495872e-05  4.9291517706629485e-05  3.5504285847779472e-05  2.6926192913994403e-05  2.2373834040485761e-05  2.0799566031578019e-05  2.1560337380814706e-05  2.4483810309088203e-05  2.9765212947475582e-05  3.7757391573023793e-05  4.8707468715958658e-05  6.2451097476884599e-05  7.8045987497137761e-05  9.3407372865672429e-05  1.0525495446519581e-04  1.0988421027755064e-04  1.0492360154734048e-04  9.1174356352227354e-05  7.2846717243099237e-05  5.5409422698637551e-05  4.2516017332025603e-05  3.4543875829160882e-05  2.9611123944589294e-05  2.5595537049054765e-05  2.1396455140635019e-05  1.7011628856741468e-05  1.3005925547549155e-05  9.9905710635536727e-06  8.3561332848564955e-06  8.2291095857481148e-06  9.5458592000000328e-06  1.2159715094894025e-05  1.5935148255293610e-05  2.0804733514570707e-05  2.6761200255001787e-05  3.3731482016728797e-05  4.1268233708729173e-05  4.8163903713801729e-05  5.2913212297423354e-05  5.6897194870371766e-05  6.5895439839808528e-05  7.8353132634698783e-05  8.0941024318993227e-05  6.4551868983401159e-05  4.0665402537812779e-05  2.9068826637255388e-05  3.3858346018112736e-05  5.3352098487657916e-05  7.5460537289763041e-05  8.3921273039508468e-05  7.7895113874192016e-05  6.3959115696435493e-05  4.8245175349889404e-05  3.4482445122311934e-05  2.4172480001123211e-05  1.7334499455032806e-05  1.3241320721366442e-05  1.0984693183337258e-05  9.8931963905106586e-06  9.8321682595373694e-06  1.1357873369164690e-05  1.5679200865121719e-05  2.4401350187886947e-05  3.9039364769154813e-05  6.0299692736781830e-05  8.7222464074923658e-05  1.1650268674724099e-04  1.4249293752759633e-04  1.5822198522413985e-04  1.5722905390471820e-04  1.3567730186478464e-04  9.4818036487136486e-05  4.5321685447089579e-05  1.0999889020614948e-05  1.2104794995999240e-06  8.5756686664843298e-08  5.5222286853458253e-09  3.2034210916542940e-10  7.0812269477625182e-10  9.9740212920669416e-10  3.3082858585370141e-04  3.1830545494848785e-04  2.8270546612470108e-04  2.3034879452851274e-04  1.7133783489546161e-04  1.1646041479460930e-04  7.3710370712797357e-05  4.7005524033892094e-05  3.6978144330609615e-05  4.2199218139900200e-05  5.9845490514098957e-05  8.5881698083370813e-05  1.1523115648232147e-04  1.4230862102873252e-04  1.6202335553637374e-04  1.7098621298622629e-04  1.6833944885707490e-04  1.5572698982161147e-04  1.3644844235832234e-04  1.1430267617164182e-04  9.2636992273469309e-05  7.3818090775706617e-05  5.9089513647836405e-05  4.8704744164270773e-05  4.2229690142843405e-05  3.8908794410457976e-05  3.7991586022001795e-05  3.8944520925074945e-05  4.1519827632847801e-05  4.5697640389588966e-05  5.1543890632984739e-05  5.9026309599200166e-05  6.7809904813198366e-05  7.7042702812750785e-05  8.5195364822771439e-05  9.0146243522310268e-05  8.9766474124299304e-05  8.2996903648816734e-05  7.0815695389823678e-05  5.6168449988965755e-05  4.2558261506403183e-05  3.2239102429594592e-05  2.5431994807474737e-05  2.0979537384450527e-05  1.7565907274100471e-05  1.4491359097650487e-05  1.1745106179150841e-05  9.7016531302330626e-06  8.8025311019423708e-06  9.3730699934466447e-06  1.1561507860970441e-05  1.5341689631317151e-05  2.0539496948667805e-05  2.6873386830196701e-05  3.4010843456323300e-05  4.1626927957148714e-05  4.9425902348129887e-05  5.7096289659778297e-05  6.4275668941603448e-05  7.0782902995262061e-05  7.7128839074573125e-05  8.4061545643479923e-05  9.0370200047467893e-05  9.2336412447983459e-05  8.7189402904095376e-05  7.7327195378154532e-05  7.0485686557621979e-05  7.2004266728528408e-05  7.8876770949540490e-05  8.3653940055404511e-05  8.1996612444537771e-05  7.4249275005594374e-05  6.3121974689346751e-05  5.1485375855841309e-05  4.1279485932936863e-05  3.3328360366797868e-05  2.7616693625280820e-05  2.3686305406640285e-05  2.0988360645954757e-05  1.9157186306158360e-05  1.8205098076844605e-05  1.8618692147127644e-05  2.1324418496262046e-05  2.7499964535322731e-05  3.8221676080339409e-05  5.3957969969501290e-05  7.3984689741101651e-05  9.5931856724443409e-05  1.1578259926745118e-04  1.2856995436072007e-04  1.2972410856251765e-04  1.1673058632608995e-04  9.0696204273701118e-05  5.7393015015113418e-05  2.6730519818411853e-05  8.1993414221226420e-06  1.6675097380603963e-06  2.9478587735671377e-07  7.2597884076512171e-08  3.6945239154340432e-08  3.1865617345793024e-08  2.1545683642635216e-04  2.0914424861985753e-04  1.9057476092365701e-04  1.6169814892946693e-04  1.2694569386027184e-04  9.2239613764969738e-05  6.2925513307395041e-05  4.2465033166136755e-05  3.2354239223113346e-05  3.2565903188913170e-05  4.1879706074047066e-05  5.8009877578664109e-05  7.7755958295601946e-05  9.7401153042738013e-05  1.1340868499625139e-04  1.2322937950737874e-04  1.2587131589770722e-04  1.2195640636703656e-04  1.1327748724455473e-04  1.0212491603311343e-04  9.0676834534507211e-05  8.0601528677757045e-05  7.2882606107219045e-05  6.7825702460935688e-05  6.5198689793762577e-05  6.4449885872017390e-05  6.4939863458278994e-05  6.6126738806212616e-05  6.7664864280818810e-05  6.9405878398600673e-05  7.1319403626496253e-05  7.3367324414402884e-05  7.5365912289428619e-05  7.6866987352209871e-05  7.7107905267036794e-05  7.5120654629735157e-05  7.0083683231619812e-05  6.1846871823378766e-05  5.1303372196362780e-05  4.0207542500722482e-05  3.0395949551288889e-05  2.2924305986442997e-05  1.7767632350365990e-05  1.4220657550146722e-05  1.1553684575751566e-05  9.4310288788381772e-06  7.9581222246570606e-06  7.5113396831530746e-06  8.5376406216082477e-06  1.1410220596120122e-05  1.6335431814028011e-05  2.3278487662573354e-05  3.1903925888755764e-05  4.1571369174687564e-05  5.1433011177642613e-05  6.0624726469516604e-05  6.8472056716989277e-05  7.4618948409353299e-05  7.9055940219078993e-05  8.2094299228544805e-05  8.4257541220237656e-05  8.5935385144709117e-05  8.6914897594978353e-05  8.6403873875130806e-05  8.3905673036993329e-05  8.0222725528670649e-05  7.7245494942864942e-05  7.6209293003348555e-05  7.6292482299520804e-05  7.5551881674733204e-05  7.2731546035999746e-05  6.7922371590533549e-05  6.2101779507184543e-05  5.6375254998682029e-05  5.1458022198918215e-05  4.7528621846364552e-05  4.4357789567895171e-05  4.1550121744848408e-05  3.8774757195014912e-05  3.5931118447379284e-05  3.3242437791186567e-05  3.1277431374430811e-05  3.0887173566119740e-05  3.3040342848594277e-05  3.8557283214196117e-05  4.7770838593457301e-05  6.0177456382752583e-05  7.4196207980087802e-05  8.7201557404213356e-05  9.5967193942364960e-05  9.7516751294964561e-05  9.0183912509626346e-05  7.4533445341511064e-05  5.3697514116129231e-05  3.2637421545971862e-05  1.6146646671317058e-05  6.4603187424248355e-06  2.3163636687254950e-06  1.0069253788307415e-06  6.9690547768916413e-07  6.4935319277154422e-07  1.2872519752727421e-04  1.2628486844262727e-04  1.1866818840139810e-04  1.0575719999349176e-04  8.8769632344655618e-05  7.0257576704750783e-05  5.3118627600777671e-05  3.9689715062266437e-05  3.1414568986337661e-05  2.8879278173868037e-05  3.1901671540484128e-05  3.9579149338430926e-05  5.0375769989185677e-05  6.2350827073835279e-05  7.3545399260160782e-05  8.2426074885358344e-05  8.8214106852319506e-05  9.0966407357969957e-05  9.1405210367059679e-05  9.0610306896035157e-05  8.9704340656513584e-05  8.9600572795015611e-05  9.0827855616061471e-05  9.3438346231122503e-05  9.7013829569497719e-05  1.0078242457627396e-04  1.0383067531430572e-04  1.0535613851086554e-04  1.0487480448020676e-04  1.0230584158995161e-04  9.7911109229921743e-05  9.2134276962303510e-05  8.5418166844454527e-05  7.8068498389813305e-05  7.0204901051823683e-05  6.1819486290257003e-05  5.2936205858309019e-05  4.3802495311800952e-05  3.4973481327554872e-05  2.7166971479077339e-05  2.0932125167653303e-05  1.6365313134728908e-05  1.3106009886158921e-05  1.0618422185470495e-05  8.5425511652841473e-06  6.8928058020784073e-06  6.0418829691127791e-06  6.5699091258762551e-06  9.0922437939921270e-06  1.4125409732417277e-05  2.1970051566362072e-05  3.2557154028625751e-05  4.5273126456872926e-05  5.8895560627413909e-05  7.1782639373213904e-05  8.2304445752328485e-05  8.9318786024082235e-05  9.2456634164101735e-05  9.2116018994791902e-05  8.9227343857716800e-05  8.4913583627886747e-05  8.0147935480160312e-05  7.5519252534737811e-05  7.1233923908534165e-05  6.7363963904125583e-05  6.4111816090847538e-05  6.1793031283579456e-05  6.0541867055544450e-05  6.0121596396134941e-05  6.0113477381922213e-05  6.0279640995480019e-05  6.0718216530388106e-05  6.1706238060051457e-05  6.3400269492034329e-05  6.5607283576811376e-05  6.7751109779617643e-05  6.9042124559623447e-05  6.8757088477214642e-05  6.6493462265571377e-05  6.2304248620480559e-05  5.6706800942901353e-05  5.0605459396035997e-05  4.5144261504359677e-05  4.1482207763447438e-05  4.0516943183351736e-05  4.2628447677006833e-05  4.7509734105346345e-05  5.4119517820323134e-05  6.0786417539093839e-05  6.5502121745137813e-05  6.6405759897285015e-05  6.2370105243758357e-05  5.3496927993451157e-05  4.1273279918632818e-05  2.8189435594336535e-05  1.6837677378551499e-05  8.8792087809535318e-06  4.5107245783524257e-06  2.7727560778891713e-06  2.3708003175276871e-06  2.3488942950409712e-06  7.2295816728429134e-05  7.1684217609147349e-05  6.9565988822963332e-05  6.5498974203243794e-05  5.9553751838349238e-05  5.2470433109444689e-05  4.5306691669229957e-05  3.9043393221985096e-05  3.4403092498296832e-05  3.1824527639310220e-05  3.1466804408515946e-05  3.3210204190591426e-05  3.6695419265380721e-05  4.1428734122943280e-05  4.6926063021827527e-05  5.2841596720476685e-05  5.9039083959631600e-05  6.5592352646679671e-05  7.2731584354869064e-05  8.0768535182037978e-05  9.0017036707382687e-05  1.0068755021043371e-04  1.1272801381543669e-04  1.2563318023388594e-04  1.3831506987771434e-04  1.4916050925818482e-04  1.5635311237408164e-04  1.5839452385478633e-04  1.5459828386923897e-04  1.4529931617122721e-04  1.3168557239669142e-04  1.1538292884633376e-04  9.8023133370781290e-05  8.0958348359434255e-05  6.5158789155469557e-05  5.1243597302117520e-05  3.9569800584489937e-05  3.0311085973565820e-05  2.3477805931937108e-05  1.8870823573701062e-05  1.6025505555317719e-05  1.4243386336525307e-05  1.2769487461696880e-05  1.1063991722235177e-05  9.0304202764748969e-06  7.0770646896664393e-06  5.9891034933940590e-06  6.6971741803671303e-06  1.0071942983926056e-05  1.6812698095008040e-05  2.7352260135161023e-05  4.1620974648494241e-05  5.8681842459481058e-05  7.6550712511202237e-05  9.2538346797953609e-05  1.0406863052383545e-04  1.0953114217518878e-04  1.0870864369963087e-04  1.0264139022740300e-04  9.3119734073254643e-05  8.2098714427663607e-05  7.1239555511986116e-05  6.1662430961280775e-05  5.3917623514046315e-05  4.8123697406679546e-05  4.4170387661036653e-05  4.1884240688081018e-05  4.1123719112570753e-05  4.1838179549881664e-05  4.4116273165884290e-05  4.8189417921951524e-05  5.4333366103409900e-05  6.2657062950313494e-05  7.2841104229133045e-05  8.3946645993008393e-05  9.4434647544127678e-05  1.0247266630934046e-04  1.0644708716054296e-04  1.0544642160585778e-04  9.9498242997673024e-05  8.9526277547815619e-05  7.7132506990788510e-05  6.4273691542444280e-05  5.2842056486068840e-05  4.4232142043738235e-05  3.9063311230177144e-05  3.7154211949841620e-05  3.7684825812697807e-05  3.9425620271956996e-05  4.0983653721570796e-05  4.1080702491926161e-05  3.8857164860136377e-05  3.4125829949073933e-05  2.7458937993237668e-05  2.0023830509425206e-05  1.3185157994853357e-05  8.0204663693469354e-06  4.9637599817141600e-06  3.7306134339578268e-06  3.5458525002744258e-06  3.5995126742783545e-06  4.2695199152066065e-05  4.2367190530972262e-05  4.1532602898672245e-05  4.0557461911491408e-05  3.9834818110038643e-05  3.9598579367750270e-05  3.9828027175710127e-05  4.0282648316309517e-05  4.0634487658685274e-05  4.0601850827757186e-05  4.0013976295914038e-05  3.8838120833686857e-05  3.7245797944602734e-05  3.5710035952970746e-05  3.5023714576618024e-05  3.6162215532367199e-05  4.0048739151183626e-05  4.7353971691004798e-05  5.8416051716893427e-05  7.3282007041495554e-05  9.1803165712472758e-05  1.13665256396