<?xml version="1.0"?>
<VTKFile type="UnstructuredGrid"  version="0.1"  >
<UnstructuredGrid>
<Piece  NumberOfPoints="20201" NumberOfCells="40000">
<Points>
<DataArray  type="Float64"  NumberOfComponents="3"  format="ascii">0 0 0  2 0 0  4 0 0  6 0 0  8 0 0  10 0 0  12 0 0  14 0 0  16 0 0  18 0 0  20 0 0  22 0 0  24 0 0  26 0 0  28 0 0  30 0 0  32 0 0  34 0 0  36 0 0  38 0 0  40 0 0  42 0 0  44 0 0  46 0 0  48 0 0  50 0 0  52 0 0  54 0 0  56 0 0  58 0 0  60 0 0  62 0 0  64 0 0  66 0 0  68 0 0  70 0 0  72 0 0  74 0 0  76 0 0  78 0 0  80 0 0  82 0 0  84 0 0  86 0 0  88 0 0  90 0 0  92 0 0  94 0 0  96 0 0  98 0 0  100 0 0  102 0 0  104 0 0  106 0 0  108 0 0  110 0 0  112 0 0  114 0 0  116 0 0  118 0 0  120 0 0  122 0 0  124 0 0  126 0 0  128 0 0  130 0 0  132 0 0  134 0 0  136 0 0  138 0 0  140 0 0  142 0 0  144 0 0  146 0 0  148 0 0  150 0 0  152 0 0  154 0 0  156 0 0  158 0 0  160 0 0  162 0 0  164 0 0  166 0 0  168 0 0  170 0 0  172 0 0  174 0 0  176 0 0  178 0 0  180 0 0  182 0 0  184 0 0  186 0 0  188 0 0  190 0 0  192 0 0  194 0 0  196 0 0  198 0 0  200 0 0  0 2 0  2 2 0  4 2 0  6 2 0  8 2 0  10 2 0  12 2 0  14 2 0  16 2 0  18 2 0  20 2 0  22 2 0  24 2 0  26 2 0  28 2 0  30 2 0  32 2 0  34 2 0  36 2 0  38 2 0  40 2 0  42 2 0  44 2 0  46 2 0  48 2 0  50 2 0  52 2 0  54 2 0  56 2 0  58 2 0  60 2 0  62 2 0  64 2 0  66 2 0  68 2 0  70 2 0  72 2 0  74 2 0  76 2 0  78 2 0  80 2 0  82 2 0  84 2 0  86 2 0  88 2 0  90 2 0  92 2 0  94 2 0  96 2 0  98 2 0  100 2 0  102 2 0  104 2 0  106 2 0  108 2 0  110 2 0  112 2 0  114 2 0  116 2 0  118 2 0  120 2 0  122 2 0  124 2 0  126 2 0  128 2 0  130 2 0  132 2 0  134 2 0  136 2 0  138 2 0  140 2 0  142 2 0  144 2 0  146 2 0  148 2 0  150 2 0  152 2 0  154 2 0  156 2 0  158 2 0  160 2 0  162 2 0  164 2 0  166 2 0  168 2 0  170 2 0  172 2 0  174 2 0  176 2 0  178 2 0  180 2 0  182 2 0  184 2 0  186 2 0  188 2 0  190 2 0  192 2 0  194 2 0  196 2 0  198 2 0  200 2 0  0 4 0  2 4 0  4 4 0  6 4 0  8 4 0  10 4 0  12 4 0  14 4 0  16 4 0  18 4 0  20 4 0  22 4 0  24 4 0  26 4 0  28 4 0  30 4 0  32 4 0  34 4 0  36 4 0  38 4 0  40 4 0  42 4 0  44 4 0  46 4 0  48 4 0  50 4 0  52 4 0  54 4 0  56 4 0  58 4 0  60 4 0  62 4 0  64 4 0  66 4 0  68 4 0  70 4 0  72 4 0  74 4 0  76 4 0  78 4 0  80 4 0  82 4 0  84 4 0  86 4 0  88 4 0  90 4 0  92 4 0  94 4 0  96 4 0  98 4 0  100 4 0  102 4 0  104 4 0  106 4 0  108 4 0  110 4 0  112 4 0  114 4 0  116 4 0  118 4 0  120 4 0  122 4 0  124 4 0  126 4 0  128 4 0  130 4 0  132 4 0  134 4 0  136 4 0  138 4 0  140 4 0  142 4 0  144 4 0  146 4 0  148 4 0  150 4 0  152 4 0  154 4 0  156 4 0  158 4 0  160 4 0  162 4 0  164 4 0  166 4 0  168 4 0  170 4 0  172 4 0  174 4 0  176 4 0  178 4 0  180 4 0  182 4 0  184 4 0  186 4 0  188 4 0  190 4 0  192 4 0  194 4 0  196 4 0  198 4 0  200 4 0  0 6 0  2 6 0  4 6 0  6 6 0  8 6 0  10 6 0  12 6 0  14 6 0  16 6 0  18 6 0  20 6 0  22 6 0  24 6 0  26 6 0  28 6 0  30 6 0  32 6 0  34 6 0  36 6 0  38 6 0  40 6 0  42 6 0  44 6 0  46 6 0  48 6 0  50 6 0  52 6 0  54 6 0  56 6 0  58 6 0  60 6 0  62 6 0  64 6 0  66 6 0  68 6 0  70 6 0  72 6 0  74 6 0  76 6 0  78 6 0  80 6 0  82 6 0  84 6 0  86 6 0  88 6 0  90 6 0  92 6 0  94 6 0  96 6 0  98 6 0  100 6 0  102 6 0  104 6 0  106 6 0  108 6 0  110 6 0  112 6 0  114 6 0  116 6 0  118 6 0  120 6 0  122 6 0  124 6 0  126 6 0  128 6 0  130 6 0  132 6 0  134 6 0  136 6 0  138 6 0  140 6 0  142 6 0  144 6 0  146 6 0  148 6 0  150 6 0  152 6 0  154 6 0  156 6 0  158 6 0  160 6 0  162 6 0  164 6 0  166 6 0  168 6 0  170 6 0  172 6 0  174 6 0  176 6 0  178 6 0  180 6 0  182 6 0  184 6 0  186 6 0  188 6 0  190 6 0  192 6 0  194 6 0  196 6 0  198 6 0  200 6 0  0 8 0  2 8 0  4 8 0  6 8 0  8 8 0  10 8 0  12 8 0  14 8 0  16 8 0  18 8 0  20 8 0  22 8 0  24 8 0  26 8 0  28 8 0  30 8 0  32 8 0  34 8 0  36 8 0  38 8 0  40 8 0  42 8 0  44 8 0  46 8 0  48 8 0  50 8 0  52 8 0  54 8 0  56 8 0  58 8 0  60 8 0  62 8 0  64 8 0  66 8 0  68 8 0  70 8 0  72 8 0  74 8 0  76 8 0  78 8 0  80 8 0  82 8 0  84 8 0  86 8 0  88 8 0  90 8 0  92 8 0  94 8 0  96 8 0  98 8 0  100 8 0  102 8 0  104 8 0  106 8 0  108 8 0  110 8 0  112 8 0  114 8 0  116 8 0  118 8 0  120 8 0  122 8 0  124 8 0  126 8 0  128 8 0  130 8 0  132 8 0  134 8 0  136 8 0  138 8 0  140 8 0  142 8 0  144 8 0  146 8 0  148 8 0  150 8 0  152 8 0  154 8 0  156 8 0  158 8 0  160 8 0  162 8 0  164 8 0  166 8 0  168 8 0  170 8 0  172 8 0  174 8 0  176 8 0  178 8 0  180 8 0  182 8 0  184 8 0  186 8 0  188 8 0  190 8 0  192 8 0  194 8 0  196 8 0  198 8 0  200 8 0  0 10 0  2 10 0  4 10 0  6 10 0  8 10 0  10 10 0  12 10 0  14 10 0  16 10 0  18 10 0  20 10 0  22 10 0  24 10 0  26 10 0  28 10 0  30 10 0  32 10 0  34 10 0  36 10 0  38 10 0  40 10 0  42 10 0  44 10 0  46 10 0  48 10 0  50 10 0  52 10 0  54 10 0  56 10 0  58 10 0  60 10 0  62 10 0  64 10 0  66 10 0  68 10 0  70 10 0  72 10 0  74 10 0  76 10 0  78 10 0  80 10 0  82 10 0  84 10 0  86 10 0  88 10 0  90 10 0  92 10 0  94 10 0  96 10 0  98 10 0  100 10 0  102 10 0  104 10 0  106 10 0  108 10 0  110 10 0  112 10 0  114 10 0  116 10 0  118 10 0  120 10 0  122 10 0  124 10 0  126 10 0  128 10 0  130 10 0  132 10 0  134 10 0  136 10 0  138 10 0  140 10 0  142 10 0  144 10 0  146 10 0  148 10 0  150 10 0  152 10 0  154 10 0  156 10 0  158 10 0  160 10 0  162 10 0  164 10 0  166 10 0  168 10 0  170 10 0  172 10 0  174 10 0  176 10 0  178 10 0  180 10 0  182 10 0  184 10 0  186 10 0  188 10 0  190 10 0  192 10 0  194 10 0  196 10 0  198 10 0  200 10 0  0 12 0  2 12 0  4 12 0  6 12 0  8 12 0  10 12 0  12 12 0  14 12 0  16 12 0  18 12 0  20 12 0  22 12 0  24 12 0  26 12 0  28 12 0  30 12 0  32 12 0  34 12 0  36 12 0  38 12 0  40 12 0  42 12 0  44 12 0  46 12 0  48 12 0  50 12 0  52 12 0  54 12 0  56 12 0  58 12 0  60 12 0  62 12 0  64 12 0  66 12 0  68 12 0  70 12 0  72 12 0  74 12 0  76 12 0  78 12 0  80 12 0  82 12 0  84 12 0  86 12 0  88 12 0  90 12 0  92 12 0  94 12 0  96 12 0  98 12 0  100 12 0  102 12 0  104 12 0  106 12 0  108 12 0  110 12 0  112 12 0  114 12 0  116 12 0  118 12 0  120 12 0  122 12 0  124 12 0  126 12 0  128 12 0  130 12 0  132 12 0  134 12 0  136 12 0  138 12 0  140 12 0  142 12 0  144 12 0  146 12 0  148 12 0  150 12 0  152 12 0  154 12 0  156 12 0  158 12 0  160 12 0  162 12 0  164 12 0  166 12 0  168 12 0  170 12 0  172 12 0  174 12 0  176 12 0  178 12 0  180 12 0  182 12 0  184 12 0  186 12 0  188 12 0  190 12 0  192 12 0  194 12 0  196 12 0  198 12 0  200 12 0  0 14 0  2 14 0  4 14 0  6 14 0  8 14 0  10 14 0  12 14 0  14 14 0  16 14 0  18 14 0  20 14 0  22 14 0  24 14 0  26 14 0  28 14 0  30 14 0  32 14 0  34 14 0  36 14 0  38 14 0  40 14 0  42 14 0  44 14 0  46 14 0  48 14 0  50 14 0  52 14 0  54 14 0  56 14 0  58 14 0  60 14 0  62 14 0  64 14 0  66 14 0  68 14 0  70 14 0  72 14 0  74 14 0  76 14 0  78 14 0  80 14 0  82 14 0  84 14 0  86 14 0  88 14 0  90 14 0  92 14 0  94 14 0  96 14 0  98 14 0  100 14 0  102 14 0  104 14 0  106 14 0  108 14 0  110 14 0  112 14 0  114 14 0  116 14 0  118 14 0  120 14 0  122 14 0  124 14 0  126 14 0  128 14 0  130 14 0  132 14 0  134 14 0  136 14 0  138 14 0  140 14 0  142 14 0  144 14 0  146 14 0  148 14 0  150 14 0  152 14 0  154 14 0  156 14 0  158 14 0  160 14 0  162 14 0  164 14 0  166 14 0  168 14 0  170 14 0  172 14 0  174 14 0  176 14 0  178 14 0  180 14 0  182 14 0  184 14 0  186 14 0  188 14 0  190 14 0  192 14 0  194 14 0  196 14 0  198 14 0  200 14 0  0 16 0  2 16 0  4 16 0  6 16 0  8 16 0  10 16 0  12 16 0  14 16 0  16 16 0  18 16 0  20 16 0  22 16 0  24 16 0  26 16 0  28 16 0  30 16 0  32 16 0  34 16 0  36 16 0  38 16 0  40 16 0  42 16 0  44 16 0  46 16 0  48 16 0  50 16 0  52 16 0  54 16 0  56 16 0  58 16 0  60 16 0  62 16 0  64 16 0  66 16 0  68 16 0  70 16 0  72 16 0  74 16 0  76 16 0  78 16 0  80 16 0  82 16 0  84 16 0  86 16 0  88 16 0  90 16 0  92 16 0  94 16 0  96 16 0  98 16 0  100 16 0  102 16 0  104 16 0  106 16 0  108 16 0  110 16 0  112 16 0  114 16 0  116 16 0  118 16 0  120 16 0  122 16 0  124 16 0  126 16 0  128 16 0  130 16 0  132 16 0  134 16 0  136 16 0  138 16 0  140 16 0  142 16 0  144 16 0  146 16 0  148 16 0  150 16 0  152 16 0  154 16 0  156 16 0  158 16 0  160 16 0  162 16 0  164 16 0  166 16 0  168 16 0  170 16 0  172 16 0  174 16 0  176 16 0  178 16 0  180 16 0  182 16 0  184 16 0  186 16 0  188 16 0  190 16 0  192 16 0  194 16 0  196 16 0  198 16 0  200 16 0  0 18 0  2 18 0  4 18 0  6 18 0  8 18 0  10 18 0  12 18 0  14 18 0  16 18 0  18 18 0  20 18 0  22 18 0  24 18 0  26 18 0  28 18 0  30 18 0  32 18 0  34 18 0  36 18 0  38 18 0  40 18 0  42 18 0  44 18 0  46 18 0  48 18 0  50 18 0  52 18 0  54 18 0  56 18 0  58 18 0  60 18 0  62 18 0  64 18 0  66 18 0  68 18 0  70 18 0  72 18 0  74 18 0  76 18 0  78 18 0  80 18 0  82 18 0  84 18 0  86 18 0  88 18 0  90 18 0  92 18 0  94 18 0  96 18 0  98 18 0  100 18 0  102 18 0  104 18 0  106 18 0  108 18 0  110 18 0  112 18 0  114 18 0  116 18 0  118 18 0  120 18 0  122 18 0  124 18 0  126 18 0  128 18 0  130 18 0  132 18 0  134 18 0  136 18 0  138 18 0  140 18 0  142 18 0  144 18 0  146 18 0  148 18 0  150 18 0  152 18 0  154 18 0  156 18 0  158 18 0  160 18 0  162 18 0  164 18 0  166 18 0  168 18 0  170 18 0  172 18 0  174 18 0  176 18 0  178 18 0  180 18 0  182 18 0  184 18 0  186 18 0  188 18 0  190 18 0  192 18 0  194 18 0  196 18 0  198 18 0  200 18 0  0 20 0  2 20 0  4 20 0  6 20 0  8 20 0  10 20 0  12 20 0  14 20 0  16 20 0  18 20 0  20 20 0  22 20 0  24 20 0  26 20 0  28 20 0  30 20 0  32 20 0  34 20 0  36 20 0  38 20 0  40 20 0  42 20 0  44 20 0  46 20 0  48 20 0  50 20 0  52 20 0  54 20 0  56 20 0  58 20 0  60 20 0  62 20 0  64 20 0  66 20 0  68 20 0  70 20 0  72 20 0  74 20 0  76 20 0  78 20 0  80 20 0  82 20 0  84 20 0  86 20 0  88 20 0  90 20 0  92 20 0  94 20 0  96 20 0  98 20 0  100 20 0  102 20 0  104 20 0  106 20 0  108 20 0  110 20 0  112 20 0  114 20 0  116 20 0  118 20 0  120 20 0  122 20 0  124 20 0  126 20 0  128 20 0  130 20 0  132 20 0  134 20 0  136 20 0  138 20 0  140 20 0  142 20 0  144 20 0  146 20 0  148 20 0  150 20 0  152 20 0  154 20 0  156 20 0
[...]
<PointData  Scalars="f_271-2"> 
<DataArray  type="Float64"  Name="f_271-2"  format="ascii">3.5928881510528965e-13  3.4947307023605868e-13  3.2181948406478813e-13  2.8125033229651033e-13  2.3460117687497995e-13  1.8905650130528642e-13  1.5070959844717713e-13  1.2359661108149636e-13  1.0932984031243200e-13  1.0725071169844592e-13  1.1491936679086553e-13  1.2876084897933201e-13  1.4474534897536791e-13  1.5903174731582610e-13  1.6852062517721038e-13  1.7125533523843020e-13  1.6660838642415227e-13  1.5521862179553165e-13  1.3870081906736543e-13  1.1920923154260799e-13  9.8971303075148523e-14  7.9902472044742855e-14  6.3373626269753779e-14  5.0149165177442735e-14  4.0466484105944031e-14  3.4199488564512435e-14  3.1041826258107115e-14  3.0655350746390190e-14  3.2748910833655191e-14  3.7075740998564584e-14  4.3360671289792506e-14  5.1189142103680258e-14  5.9906418313439563e-14  6.8582358661351853e-14  7.6086315200246580e-14  8.1281769363571046e-14  8.3296057848443247e-14  8.1769574711525099e-14  7.6974277315374870e-14  6.9734564493265253e-14  6.1171651254495937e-14  5.2377764515550608e-14  4.4156286121817388e-14  3.6920051308448627e-14  3.0752795882876316e-14  2.5563645022474783e-14  2.1240953861157507e-14  1.7739440828013453e-14  1.5081748462557712e-14  1.3285012691352765e-14  1.2209287765489394e-14  1.1246311304350477e-14  8.7083464141066736e-15  3.3686106438221597e-15  3.8041665807298132e-16  1.7095216043181327e-17  3.6462319124808757e-19  1.6844215523309510e-20  1.1518316508770772e-21  -3.1879086644601921e-21  3.2701643262126101e-20  1.0927286214268719e-18  5.1700054589305561e-18  1.4146317727505568e-18  6.3939075570758635e-20  1.0192214288967345e-21  -7.2177595762395233e-23  2.2055072076452595e-23  5.3689450112538175e-23  4.3058753442163811e-21  8.8291571682559766e-22  1.2397849297589856e-18  6.8147947003359325e-17  1.6231814789190326e-15  1.0219470010426949e-14  1.8732479144029455e-14  2.0678945197203984e-14  1.9650310148566106e-14  1.8402821362136358e-14  1.8263695446164298e-14  1.9938996647170442e-14  2.3919526363374404e-14  3.0573104645960133e-14  4.0022515932685986e-14  5.1892170322127881e-14  6.4986544001398669e-14  7.6924831789424262e-14  8.3678378428274042e-14  7.8776208772241784e-14  5.2900454579158460e-14  1.3909763904244992e-14  7.6872026614429564e-16  4.8519592717119307e-18  -9.6335260728987145e-20  2.2101471746959741e-20  -1.5279399102248418e-21  1.1180022461504270e-22  -8.8471885015915204e-24  5.5465025793081023e-25  -1.8846598313665147e-25  -5.8407542266894159e-26  3.5019856574865375e-13  3.4067631356437492e-13  3.1384386342803426e-13  2.7446261010164138e-13  2.2915033366737736e-13  1.8487211117192811e-13  1.4754756681062780e-13  1.2111218995176952e-13  1.0715551334654318e-13  1.0506207232421498e-13  1.1248055083687162e-13  1.2594802612314124e-13  1.4155044205758810e-13  1.5554966245223793e-13  1.6492359676254102e-13  1.6775876244505126e-13  1.6343376877545382e-13  1.5255995120318176e-13  1.3670007060490583e-13  1.1794420866856979e-13  9.8455799008495271e-14  8.0095762311578273e-14  6.4194726420363930e-14  5.1491383964112585e-14  4.2209179577848136e-14  3.6215824280185310e-14  3.3202992130915131e-14  3.2832727806802788e-14  3.4815960645838510e-14  3.8911179287163202e-14  4.4853971401546796e-14  5.2248698765488073e-14  6.0469723405388487e-14  6.8626275202998816e-14  7.5634286088156633e-14  8.0404300313438254e-14  8.2101911314608118e-14  8.0388032436555675e-14  7.5532595383220639e-14  6.8337380116744630e-14  5.9888814685083991e-14  5.1243652894033662e-14  4.3178875996377215e-14  3.6094513028258868e-14  3.0073818079572411e-14  2.5032831637194993e-14  2.0868722937737335e-14  1.7543113817453388e-14  1.5082288436763239e-14  1.3504817142982931e-14  1.2674032608539972e-14  1.1996242814372715e-14  9.7820282384406583e-15  4.3007381092257915e-15  5.8142865664916442e-16  3.3650364497284230e-17  1.1834509012188403e-18  8.2562519842963933e-20  1.4214523396383775e-20  2.7012405218891865e-20  1.5225846353114369e-19  6.1898625508398654e-18  2.7869718988451499e-17  7.2265565274735788e-18  2.6812111818373308e-19  -5.7226506130719965e-22  3.7453781312607371e-22  6.9567462551400374e-23  2.0885118448932682e-22  8.1709231373688204e-21  2.9410116774543802e-20  2.4971306834852206e-18  1.0593036353223591e-16  2.1113232900001510e-15  1.1715253405232018e-14  2.0271315502651555e-14  2.2107428431600511e-14  2.1056614456493070e-14  1.9784054997642348e-14  1.9564057008725123e-14  2.1082753092178962e-14  2.4826631287886442e-14  3.1166964118040191e-14  4.0237736991488567e-14  5.1688137466287073e-14  6.4372676744996243e-14  7.6007828558358231e-14  8.2758011269552652e-14  7.8577024363113808e-14  5.4792347472320950e-14  1.6331204286358622e-14  1.0854679270489298e-15  1.3229409611541076e-17  8.3575212806072765e-20  2.6110427154889255e-20  -9.5054463700798442e-22  7.9564016488166410e-23  1.2535430000882476e-23  1.4462197760858223e-24  1.5117777280727930e-24  9.8587824484108164e-25  3.2436630364454611e-13  3.1567387272203499e-13  2.9116448894719551e-13  2.5514797641343485e-13  2.1362952383026372e-13  1.7295480380251704e-13  1.3855012793158090e-13  1.1406136298269265e-13  1.0100746563196709e-13  9.8889415433384309e-14  1.0560308715768650e-13  1.1800221547308666e-13  1.3250291057781601e-13  1.4566342069753353e-13  1.5468681645911822e-13  1.5778839717783414e-13  1.5436996838827013e-13  1.4496945146753006e-13  1.3100476868130117e-13  1.1438438999589587e-13  9.7088138183051740e-14  8.0817853676966519e-14  6.6783422380223556e-14  5.5642527914647039e-14  4.7570267506122809e-14  4.2408472623794194e-14  3.9836681119181966e-14  3.9513900272642918e-14  4.1157088208839305e-14  4.4543531256869419e-14  4.9446302119389595e-14  5.5532198526374053e-14  6.2267119338960320e-14  6.8879744695251655e-14  7.4423609778025137e-14  7.7945454878212627e-14  7.8719438731342928e-14  7.6462672950308580e-14  7.1436108471478008e-14  6.4373693010231291e-14  5.6259662111831171e-14  4.8047161460448512e-14  4.0436068650218908e-14  3.3788818855576568e-14  2.8187094126791900e-14  2.3567383281475127e-14  1.9853494164877597e-14  1.7028624006989468e-14  1.5131147567920658e-14  1.4184645817163102e-14  1.4061739414085648e-14  1.4212785023162844e-14  1.3032809305791288e-14  7.7439532160950976e-15  1.6806748019733301e-15  1.5980822232055140e-16  1.0961062433371104e-17  5.7640115224283190e-19  1.1209844383836617e-20  -3.9418149677756184e-20  4.1780805772059566e-18  7.4118250191960320e-17  2.6923912152310949e-16  6.2637122664982203e-17  1.8957119112713149e-18  4.1794768705817502e-20  1.8570532256859858e-21  1.0003758150242825e-21  3.5874132236701089e-21  4.0125502771493325e-20  4.2579256272162292e-19  1.2914004728748096e-17  3.2230130112051898e-16  4.2515346429117556e-15  1.6599784779031598e-14  2.4915515869867459e-14  2.6460510815130363e-14  2.5389463033224523e-14  2.4063511873679756e-14  2.3606445143809828e-14  2.4651134863211038e-14  2.7676541969794216e-14  3.3069430899017215e-14  4.1001324401224555e-14  5.1196113623878332e-14  6.2650950133675910e-14  7.3349367896011495e-14  7.9965028870190241e-14  7.7499772282879274e-14  5.9045159420697267e-14  2.3946067261588573e-14  2.6469598519811910e-15  7.9138235339809107e-17  2.2055969533449252e-18  1.1233889803648996e-19  -8.3026603415010597e-22  7.1598034349898710e-22  -1.7039947369412851e-22  -3.9741499194591314e-23  -2.8385189676904924e-23  -2.1953960375063266e-23  2.8575052085080855e-13  2.7828610389141625e-13  2.5721873246608239e-13  2.2620005979317064e-13  1.9033851732488471e-13  1.5506633472035012e-13  1.2507321335146143e-13  1.0356132888807095e-13  9.1926239927694197e-14  8.9824203181122524e-14  9.5506520890311191e-14  1.0629433904378578e-13  1.1910046273277585e-13  1.3093733568363380e-13  1.3936136956642752e-13  1.4279976065605947e-13  1.4070794178477630e-13  1.3352982200099581e-13  1.2247704977104468e-13  1.0918975127124097e-13  9.5368442276184827e-14  8.2464240541665664e-14  7.1486263724847649e-14  6.2945194397960479e-14  5.6915203791516714e-14  5.3171988762122450e-14  5.1355216250058953e-14  5.1107443885219699e-14  5.2155089969533506e-14  5.4316464477235397e-14  5.7443608985671288e-14  6.1325166825740684e-14  6.5592720350474155e-14  6.9677916323337584e-14  7.2856645491359896e-14  7.4386854228095809e-14  7.3704235906059173e-14  7.0602910806858271e-14  6.5319881797060637e-14  5.8476138560767020e-14  5.0892330095835816e-14  4.3357684708150373e-14  3.6450202111112308e-14  3.0472403151631503e-14  2.5503127830532101e-14  2.1512087181331472e-14  1.8468001280498427e-14  1.6392483825442273e-14  1.5347415086084046e-14  1.5366679681755884e-14  1.6335841123099912e-14  1.7770761288674975e-14  1.8310218859468454e-14  1.4818812480616422e-14  6.1558954837098516e-15  1.0949340341075868e-15  1.4170675687494735e-16  1.8786818302200647e-17  3.5859023879772416e-18  6.6359064122586871e-18  7.5287267309372907e-17  9.3182834487796194e-16  1.9248345700715115e-15  4.5501516573161409e-16  1.9436102875478452e-17  5.3319280524802686e-19  3.5376627505447924e-20  6.3246776976044799e-21  3.0906512664225670e-20  3.6909802981420374e-19  5.2261972839269101e-18  9.7514556111739935e-17  1.4238851334461582e-15  1.0472352202711772e-14  2.5387366762886187e-14  3.2647163799050298e-14  3.3919856886225863e-14  3.2958958641845831e-14  3.1609438439397466e-14  3.0773692643413927e-14  3.1015654583400224e-14  3.2818317441066224e-14  3.6610311440467733e-14  4.2638262326287719e-14  5.0752471636945576e-14  6.0166976447970277e-14  6.9241940265578930e-14  7.5317350211475861e-14  7.4622066207086699e-14  6.2378487617875616e-14  3.5275549244452844e-14  7.9520693171995154e-15  5.4970543311836395e-16  2.8468075674875470e-17  8.8643322612093629e-19  9.6910134840621813e-20  4.8783694118170686e-21  2.4452120280113061e-21  8.7386119038626363e-22  5.0244600523046850e-22  4.0354493716574008e-22  2.3988466331143414e-13  2.3385690537241954e-13  2.1682413622017380e-13  1.9168675495732954e-13  1.6252263706831838e-13  1.3370219502416779e-13  1.0904232630824728e-13  9.1198969255020260e-14  8.1388062771954495e-14  7.9414606435914013e-14  8.3924160032600762e-14  9.2779802946701062e-14  1.0348824038816711e-13  1.1362122199010326e-13  1.2118656468534910e-13  1.2490123799073475e-13  1.2432278273868444e-13  1.1981639908801808e-13  1.1237132415222771e-13  1.0331752926864002e-13  9.4016100472256625e-14  8.5595714199304683e-14  7.8786474832675352e-14  7.3871300742700449e-14  7.0744690539313768e-14  6.9045908818208006e-14  6.8321234430109746e-14  6.8168543948484718e-14  6.8326728041632197e-14  6.8690477261339260e-14  6.9254052529191079e-14  7.0010245024041056e-14  7.0846675835117066e-14  7.1485340212984543e-14  7.1499138367379341e-14  7.0411258258274222e-14  6.7846863431545941e-14  6.3676805276174852e-14  5.8088003224629476e-14  5.1543665138856575e-14  4.4648114612055975e-14  3.7977657270866479e-14  3.1952445259385828e-14  2.6796804206616155e-14  2.2585669628510463e-14  1.9333788181993929e-14  1.7073335096982136e-14  1.5883506026988986e-14  1.5864486510224620e-14  1.7067604236062526e-14  1.9390474182254419e-14  2.2412885658586008e-14  2.5069640166782370e-14  2.4950237740622640e-14  1.8239454229999554e-14  7.4851760702203263e-15  1.9821987958210156e-15  5.6212161568082902e-16  2.8739978820590196e-16  4.6000686998452800e-16  1.9875533848453035e-15  6.6705395995863803e-15  8.1725791192245996e-15  2.7717169930649492e-15  2.2846304195103698e-16  1.4823965533098935e-17  1.2625154180749351e-18  4.3217083273860424e-19  1.1543839816272983e-18  8.2961279643673581e-18  8.3012451212753089e-17  8.2259119033871252e-16  6.6851344493520129e-15  2.3294205097240298e-14  3.7430781360683737e-14  4.3332253255952593e-14  4.4726207014161180e-14  4.4178084212682383e-14  4.2909717364225345e-14  4.1572422466699886e-14  4.0668602981648689e-14  4.0717009861484656e-14  4.2234966048040413e-14  4.5598375955184230e-14  5.0839939584574765e-14  5.7444369026124822e-14  6.4192205242225411e-14  6.9094112956410383e-14  6.9462558891223542e-14  6.2211055657773831e-14  4.4735556190121088e-14  1.9685699919460221e-14  3.5675132513985657e-15  2.9482016945283153e-16  2.4442830758071998e-17  1.8030281800154838e-18  1.4807556402826479e-19  -1.6103493628457467e-22  -7.6275743809321664e-21  -5.9951747744381423e-21  -5.2334345787203287e-21  1.9266263504549834e-13  1.8808406061639998e-13  1.7513242828742678e-13  1.5597796828332157e-13  1.3368712686272664e-13  1.1157109387866715e-13  9.2552450352066194e-14  7.8697907164598617e-14  7.0990270828938735e-14  6.9333655209468392e-14  7.2735029704206304e-14  7.9591532243673410e-14  8.8023256561109373e-14  9.6205118760617599e-14  1.0265745283866552e-13  1.0645575173452320e-13  1.0732570325051432e-13  1.0560763504663716e-13  1.0210248503450329e-13  9.7839326814548196e-14  9.3821339400837963e-14  9.0807730833807459e-14  8.9175640586421571e-14  8.8884548539843238e-14  8.9541945159101695e-14  9.0546747774483986e-14  9.1269358086803238e-14  9.1218463118576946e-14  9.0148844021024083e-14  8.8082658249875898e-14  8.5244447162486413e-14  8.1938327697208805e-14  7.8414452727304912e-14  7.4774200683962720e-14  7.0948429859115067e-14  6.6754782921917926e-14  6.2007740641583347e-14  5.6631820923832590e-14  5.0726248564122103e-14  4.4552701307870806e-14  3.8456532824738912e-14  3.2765150952355298e-14  2.7715379331952975e-14  2.3440433601586371e-14  2.0011170189447861e-14  1.7498084298008352e-14  1.6014704192098837e-14  1.5717922364035623e-14  1.6763110294850011e-14  1.9227350311897513e-14  2.3014741124301983e-14  2.7741155751297795e-14  3.2561734340350174e-14  3.5867818020119706e-14  3.4929265254022428e-14  2.7101738175846905e-14  1.5905998664324633e-14  8.7634258720678384e-15  6.6450002480491814e-15  8.5498227885826371e-15  1.4780420817783154e-14  2.1023300398298093e-14  2.0134246429640354e-14  1.0982760264077372e-14  2.4768875726168859e-15  3.0388153163352912e-16  5.3310167384490627e-17  2.3605576061556286e-17  4.5318332913183624e-17  1.9398325882236522e-16  1.1089961855836636e-15  6.2937389630016439e-15  2.1900009571246927e-14  4.0134995994447112e-14  5.1324649345992656e-14  5.6822735279668203e-14  5.9091877845181459e-14  5.9413346848883034e-14  5.8397868850035807e-14  5.6454476053758117e-14  5.4052250321753852e-14  5.1797652844392918e-14  5.0365369657440987e-14  5.0333159066738293e-14  5.1978546056528018e-14  5.5095154301579973e-14  5.8878931277788678e-14  6.1923533893744296e-14  6.2360216083051059e-14  5.8186881693456789e-14  4.7848581609750001e-14  3.1284586966589508e-14  1.3086537270719592e-14  2.8397721624946290e-15  3.8311565867741311e-16  4.7170753744660235e-17  6.0305003484808529e-18  8.5791159057991772e-19  1.6399223510824136e-19  5.9673412447310413e-20  4.4396125951594879e-20  1.4922338702854793e-13  1.4594264679718206e-13  1.3666040997961208e-13  1.2292859997942266e-13  1.0694520036471850e-13  9.1090800071410404e-14  7.7472828117025766e-14  6.7583964206593981e-14  6.2131534748746379e-14  6.1039280068261322e-14  6.3584198451691247e-14  6.8617061174732180e-14  7.4818418630279073e-14  8.0949910830504243e-14  8.6066067903704842e-14  8.9655745393287951e-14  9.1690416007438415e-14  9.2571911120311076e-14  9.2992329264223274e-14  9.3737294821611603e-14  9.5474878976982384e-14  9.8574486376509290e-14  1.0299431413182521e-13  1.0826424783285867e-13  1.1357323730616245e-13  1.1794626760002897e-13  1.2046981127683031e-13  1.2050536028721861e-13  1.1782917805624502e-13  1.1265778328310757e-13  1.0555666225478314e-13  9.7268828129493040e-14  8.8523750883623665e-14  7.9887284472675695e-14  7.1691793561694543e-14  6.4052888730440870e-14  5.6947827493725706e-14  5.0312020473755691e-14  4.4110911007282847e-14  3.8363973223198832e-14  3.3126005345364011e-14  2.8453092220333079e-14  2.4384385444390234e-14  2.0955264147573456e-14  1.8233695466332700e-14  1.6354992656722685e-14  1.5529417510904884e-14  1.6009774934493393e-14  1.8022765436527938e-14  2.1679464326065151e-14  2.6882977387270617e-14  3.3245357494709246e-14  4.0014590847672870e-14  4.6008919682679587e-14  4.9607998247990281e-14  4.9079432935316932e-14  4.3973139482676520e-14  3.7326871903137037e-14  3.3543832410498047e-14  3.4015153876104881e-14  3.6353526452280791e-14  3.6696750421125546e-14  3.2729351064798770e-14  2.3785527889252233e-14  1.2078027470956574e-14  4.1298253966364828e-15  1.4958125052581264e-15  9.7353833379123982e-16  1.3336621473040088e-15  3.1906216493408821e-15  9.4792878181056088e-15  2.3892262116921189e-14  4.1901587915280095e-14  5.6338962744379008e-14  6.6317164394005195e-14  7.2984011504060812e-14  7.7063312036751690e-14  7.8791563922110443e-14  7.8239565906694030e-14  7.5602329604120768e-14  7.1356159017260367e-14  6.6262108070005459e-14  6.1238325912274816e-14  5.7151929941697002e-14  5.4593393667238463e-14  5.3694110043257328e-14  5.4034232699760858e-14  5.4669455036312100e-14  5.4289909273266364e-14  5.1514670326208561e-14  4.5306007442750863e-14  3.5446720789025052e-14  2.2997327305784210e-14  1.1032934784171473e-14  3.5936661293571073e-15  8.9574817162724881e-16  2.1481396740775493e-16  5.8425382335145069e-17  1.9894734926741162e-17  9.3643376353127084e-18  7.0705924444858965e-18  1.1320523016189010e-13  1.1096244231483064e-13  1.0463182306251887e-13  9.5313043759097260e-14  8.4555213015983135e-14  7.4019450543024150e-14  6.5149072239956842e-14  5.8926536625523254e-14  5.5760245695123979e-14  5.5503317088234653e-14  5.7576332931977701e-14  6.1152714784000753e-14  6.5364813507037365e-14  6.9493754191290561e-14  7.3112395625881240e-14  7.6158801368395716e-14  7.8928973953616916e-14  8.1991599480951930e-14  8.6040922272297862e-14  9.1713454195709099e-14  9.9399591282108312e-14  1.0908437784752739e-13  1.2025375895703811e-13  1.3190057186572022e-13  1.4265140941267293e-13  1.5100664676594945e-13  1.5564631557264578e-13  1.5572081773636903e-13  1.5103816074865183e-13  1.4208854707639245e-13  1.2990296211332634e-13  1.1579924130615497e-13  1.0110097686070211e-13  8.6910372030855520e-14  7.3983404298546704e-14  6.2713077843127089e-14  5.3192280355734766e-14  4.5312143423843154e-14  3.8856051297619116e-14  3.3567536451427759e-14  2.9191845671121398e-14  2.5505118889921328e-14  2.2345652572059832e-14  1.9650562861793513e-14  1.7487219171443808e-14  1.6061817407840950e-14  1.5691416737947738e-14  1.6737223398388257e-14  1.9508975498162533e-14  2.4158201724164207e-14  3.0581268427405734e-14  3.8352673689865962e-14  4.6705936319265788e-14  5.4577635321476592e-14  6.0741973208193677e-14  6.4098897987137840e-14  6.4180277337081140e-14  6.1665619233399926e-14  5.8160380657203323e-14  5.4784400548289616e-14  5.1318376564308409e-14  4.6928581481858441e-14  4.0953457729193398e-14  3.3210642223341381e-14  2.4260001871382498e-14  1.5912092925500093e-14  1.0591597015355741e-14  8.9792492644004249e-15  1.0904939655893419e-14  1.7142023416487438e-14  2.8430339353757239e-14  4.2995107503459465e-14  5.7624946722785428e-14  7.0816082196978297e-14  8.2217007651963276e-14  9.1552157114760413e-14  9.8335114427431303e-14  1.0198895236157822e-13  1.0211165446121134e-13  9.8711701797156522e-14  9.2314968006870248e-14  8.3909169362864124e-14  7.4748912162069028e-14  6.6083394131326498e-14  5.8884170995045358e-14  5.3642451889012521e-14  5.0281236672537375e-14  4.8198200945617003e-14  4.6430350708752330e-14  4.3914315950946185e-14  3.9800101924504590e-14  3.3747778765792805e-14  2.6107205183496194e-14  1.7873800883787562e-14  1.0486226319575530e-14  5.2618689100237233e-15  2.3866470064698068e-15  1.1062947314957627e-15  6.0280681729308258e-16  4.1564115081760756e-16  3.6743108613125690e-16  8.6463775124852233e-14  8.4951333494276312e-14  8.0716700167009461e-14  7.4589318827206068e-14  6.7715090410613853e-14  6.1280701426318771e-14  5.6253408665165747e-14  5.3202838463921579e-14  5.2238507317008542e-14  5.3061261649047260e-14  5.5100985097486067e-14  5.7700467201159487e-14  6.0303266841789254e-14  6.2607555379607229e-14  6.4656625036001082e-14  6.6849948135487829e-14  6.9874695290276431e-14  7.4571996007008933e-14  8.1760429762415235e-14  9.2040814696862404e-14  1.0560614357038984