<?xml version="1.0"?>
<VTKFile type="UnstructuredGrid"  version="0.1"  >
<UnstructuredGrid>
<Piece  NumberOfPoints="20201" NumberOfCells="40000">
<Points>
<DataArray  type="Float64"  NumberOfComponents="3"  format="ascii">0 0 0  2 0 0  4 0 0  6 0 0  8 0 0  10 0 0  12 0 0  14 0 0  16 0 0  18 0 0  20 0 0  22 0 0  24 0 0  26 0 0  28 0 0  30 0 0  32 0 0  34 0 0  36 0 0  38 0 0  40 0 0  42 0 0  44 0 0  46 0 0  48 0 0  50 0 0  52 0 0  54 0 0  56 0 0  58 0 0  60 0 0  62 0 0  64 0 0  66 0 0  68 0 0  70 0 0  72 0 0  74 0 0  76 0 0  78 0 0  80 0 0  82 0 0  84 0 0  86 0 0  88 0 0  90 0 0  92 0 0  94 0 0  96 0 0  98 0 0  100 0 0  102 0 0  104 0 0  106 0 0  108 0 0  110 0 0  112 0 0  114 0 0  116 0 0  118 0 0  120 0 0  122 0 0  124 0 0  126 0 0  128 0 0  130 0 0  132 0 0  134 0 0  136 0 0  138 0 0  140 0 0  142 0 0  144 0 0  146 0 0  148 0 0  150 0 0  152 0 0  154 0 0  156 0 0  158 0 0  160 0 0  162 0 0  164 0 0  166 0 0  168 0 0  170 0 0  172 0 0  174 0 0  176 0 0  178 0 0  180 0 0  182 0 0  184 0 0  186 0 0  188 0 0  190 0 0  192 0 0  194 0 0  196 0 0  198 0 0  200 0 0  0 2 0  2 2 0  4 2 0  6 2 0  8 2 0  10 2 0  12 2 0  14 2 0  16 2 0  18 2 0  20 2 0  22 2 0  24 2 0  26 2 0  28 2 0  30 2 0  32 2 0  34 2 0  36 2 0  38 2 0  40 2 0  42 2 0  44 2 0  46 2 0  48 2 0  50 2 0  52 2 0  54 2 0  56 2 0  58 2 0  60 2 0  62 2 0  64 2 0  66 2 0  68 2 0  70 2 0  72 2 0  74 2 0  76 2 0  78 2 0  80 2 0  82 2 0  84 2 0  86 2 0  88 2 0  90 2 0  92 2 0  94 2 0  96 2 0  98 2 0  100 2 0  102 2 0  104 2 0  106 2 0  108 2 0  110 2 0  112 2 0  114 2 0  116 2 0  118 2 0  120 2 0  122 2 0  124 2 0  126 2 0  128 2 0  130 2 0  132 2 0  134 2 0  136 2 0  138 2 0  140 2 0  142 2 0  144 2 0  146 2 0  148 2 0  150 2 0  152 2 0  154 2 0  156 2 0  158 2 0  160 2 0  162 2 0  164 2 0  166 2 0  168 2 0  170 2 0  172 2 0  174 2 0  176 2 0  178 2 0  180 2 0  182 2 0  184 2 0  186 2 0  188 2 0  190 2 0  192 2 0  194 2 0  196 2 0  198 2 0  200 2 0  0 4 0  2 4 0  4 4 0  6 4 0  8 4 0  10 4 0  12 4 0  14 4 0  16 4 0  18 4 0  20 4 0  22 4 0  24 4 0  26 4 0  28 4 0  30 4 0  32 4 0  34 4 0  36 4 0  38 4 0  40 4 0  42 4 0  44 4 0  46 4 0  48 4 0  50 4 0  52 4 0  54 4 0  56 4 0  58 4 0  60 4 0  62 4 0  64 4 0  66 4 0  68 4 0  70 4 0  72 4 0  74 4 0  76 4 0  78 4 0  80 4 0  82 4 0  84 4 0  86 4 0  88 4 0  90 4 0  92 4 0  94 4 0  96 4 0  98 4 0  100 4 0  102 4 0  104 4 0  106 4 0  108 4 0  110 4 0  112 4 0  114 4 0  116 4 0  118 4 0  120 4 0  122 4 0  124 4 0  126 4 0  128 4 0  130 4 0  132 4 0  134 4 0  136 4 0  138 4 0  140 4 0  142 4 0  144 4 0  146 4 0  148 4 0  150 4 0  152 4 0  154 4 0  156 4 0  158 4 0  160 4 0  162 4 0  164 4 0  166 4 0  168 4 0  170 4 0  172 4 0  174 4 0  176 4 0  178 4 0  180 4 0  182 4 0  184 4 0  186 4 0  188 4 0  190 4 0  192 4 0  194 4 0  196 4 0  198 4 0  200 4 0  0 6 0  2 6 0  4 6 0  6 6 0  8 6 0  10 6 0  12 6 0  14 6 0  16 6 0  18 6 0  20 6 0  22 6 0  24 6 0  26 6 0  28 6 0  30 6 0  32 6 0  34 6 0  36 6 0  38 6 0  40 6 0  42 6 0  44 6 0  46 6 0  48 6 0  50 6 0  52 6 0  54 6 0  56 6 0  58 6 0  60 6 0  62 6 0  64 6 0  66 6 0  68 6 0  70 6 0  72 6 0  74 6 0  76 6 0  78 6 0  80 6 0  82 6 0  84 6 0  86 6 0  88 6 0  90 6 0  92 6 0  94 6 0  96 6 0  98 6 0  100 6 0  102 6 0  104 6 0  106 6 0  108 6 0  110 6 0  112 6 0  114 6 0  116 6 0  118 6 0  120 6 0  122 6 0  124 6 0  126 6 0  128 6 0  130 6 0  132 6 0  134 6 0  136 6 0  138 6 0  140 6 0  142 6 0  144 6 0  146 6 0  148 6 0  150 6 0  152 6 0  154 6 0  156 6 0  158 6 0  160 6 0  162 6 0  164 6 0  166 6 0  168 6 0  170 6 0  172 6 0  174 6 0  176 6 0  178 6 0  180 6 0  182 6 0  184 6 0  186 6 0  188 6 0  190 6 0  192 6 0  194 6 0  196 6 0  198 6 0  200 6 0  0 8 0  2 8 0  4 8 0  6 8 0  8 8 0  10 8 0  12 8 0  14 8 0  16 8 0  18 8 0  20 8 0  22 8 0  24 8 0  26 8 0  28 8 0  30 8 0  32 8 0  34 8 0  36 8 0  38 8 0  40 8 0  42 8 0  44 8 0  46 8 0  48 8 0  50 8 0  52 8 0  54 8 0  56 8 0  58 8 0  60 8 0  62 8 0  64 8 0  66 8 0  68 8 0  70 8 0  72 8 0  74 8 0  76 8 0  78 8 0  80 8 0  82 8 0  84 8 0  86 8 0  88 8 0  90 8 0  92 8 0  94 8 0  96 8 0  98 8 0  100 8 0  102 8 0  104 8 0  106 8 0  108 8 0  110 8 0  112 8 0  114 8 0  116 8 0  118 8 0  120 8 0  122 8 0  124 8 0  126 8 0  128 8 0  130 8 0  132 8 0  134 8 0  136 8 0  138 8 0  140 8 0  142 8 0  144 8 0  146 8 0  148 8 0  150 8 0  152 8 0  154 8 0  156 8 0  158 8 0  160 8 0  162 8 0  164 8 0  166 8 0  168 8 0  170 8 0  172 8 0  174 8 0  176 8 0  178 8 0  180 8 0  182 8 0  184 8 0  186 8 0  188 8 0  190 8 0  192 8 0  194 8 0  196 8 0  198 8 0  200 8 0  0 10 0  2 10 0  4 10 0  6 10 0  8 10 0  10 10 0  12 10 0  14 10 0  16 10 0  18 10 0  20 10 0  22 10 0  24 10 0  26 10 0  28 10 0  30 10 0  32 10 0  34 10 0  36 10 0  38 10 0  40 10 0  42 10 0  44 10 0  46 10 0  48 10 0  50 10 0  52 10 0  54 10 0  56 10 0  58 10 0  60 10 0  62 10 0  64 10 0  66 10 0  68 10 0  70 10 0  72 10 0  74 10 0  76 10 0  78 10 0  80 10 0  82 10 0  84 10 0  86 10 0  88 10 0  90 10 0  92 10 0  94 10 0  96 10 0  98 10 0  100 10 0  102 10 0  104 10 0  106 10 0  108 10 0  110 10 0  112 10 0  114 10 0  116 10 0  118 10 0  120 10 0  122 10 0  124 10 0  126 10 0  128 10 0  130 10 0  132 10 0  134 10 0  136 10 0  138 10 0  140 10 0  142 10 0  144 10 0  146 10 0  148 10 0  150 10 0  152 10 0  154 10 0  156 10 0  158 10 0  160 10 0  162 10 0  164 10 0  166 10 0  168 10 0  170 10 0  172 10 0  174 10 0  176 10 0  178 10 0  180 10 0  182 10 0  184 10 0  186 10 0  188 10 0  190 10 0  192 10 0  194 10 0  196 10 0  198 10 0  200 10 0  0 12 0  2 12 0  4 12 0  6 12 0  8 12 0  10 12 0  12 12 0  14 12 0  16 12 0  18 12 0  20 12 0  22 12 0  24 12 0  26 12 0  28 12 0  30 12 0  32 12 0  34 12 0  36 12 0  38 12 0  40 12 0  42 12 0  44 12 0  46 12 0  48 12 0  50 12 0  52 12 0  54 12 0  56 12 0  58 12 0  60 12 0  62 12 0  64 12 0  66 12 0  68 12 0  70 12 0  72 12 0  74 12 0  76 12 0  78 12 0  80 12 0  82 12 0  84 12 0  86 12 0  88 12 0  90 12 0  92 12 0  94 12 0  96 12 0  98 12 0  100 12 0  102 12 0  104 12 0  106 12 0  108 12 0  110 12 0  112 12 0  114 12 0  116 12 0  118 12 0  120 12 0  122 12 0  124 12 0  126 12 0  128 12 0  130 12 0  132 12 0  134 12 0  136 12 0  138 12 0  140 12 0  142 12 0  144 12 0  146 12 0  148 12 0  150 12 0  152 12 0  154 12 0  156 12 0  158 12 0  160 12 0  162 12 0  164 12 0  166 12 0  168 12 0  170 12 0  172 12 0  174 12 0  176 12 0  178 12 0  180 12 0  182 12 0  184 12 0  186 12 0  188 12 0  190 12 0  192 12 0  194 12 0  196 12 0  198 12 0  200 12 0  0 14 0  2 14 0  4 14 0  6 14 0  8 14 0  10 14 0  12 14 0  14 14 0  16 14 0  18 14 0  20 14 0  22 14 0  24 14 0  26 14 0  28 14 0  30 14 0  32 14 0  34 14 0  36 14 0  38 14 0  40 14 0  42 14 0  44 14 0  46 14 0  48 14 0  50 14 0  52 14 0  54 14 0  56 14 0  58 14 0  60 14 0  62 14 0  64 14 0  66 14 0  68 14 0  70 14 0  72 14 0  74 14 0  76 14 0  78 14 0  80 14 0  82 14 0  84 14 0  86 14 0  88 14 0  90 14 0  92 14 0  94 14 0  96 14 0  98 14 0  100 14 0  102 14 0  104 14 0  106 14 0  108 14 0  110 14 0  112 14 0  114 14 0  116 14 0  118 14 0  120 14 0  122 14 0  124 14 0  126 14 0  128 14 0  130 14 0  132 14 0  134 14 0  136 14 0  138 14 0  140 14 0  142 14 0  144 14 0  146 14 0  148 14 0  150 14 0  152 14 0  154 14 0  156 14 0  158 14 0  160 14 0  162 14 0  164 14 0  166 14 0  168 14 0  170 14 0  172 14 0  174 14 0  176 14 0  178 14 0  180 14 0  182 14 0  184 14 0  186 14 0  188 14 0  190 14 0  192 14 0  194 14 0  196 14 0  198 14 0  200 14 0  0 16 0  2 16 0  4 16 0  6 16 0  8 16 0  10 16 0  12 16 0  14 16 0  16 16 0  18 16 0  20 16 0  22 16 0  24 16 0  26 16 0  28 16 0  30 16 0  32 16 0  34 16 0  36 16 0  38 16 0  40 16 0  42 16 0  44 16 0  46 16 0  48 16 0  50 16 0  52 16 0  54 16 0  56 16 0  58 16 0  60 16 0  62 16 0  64 16 0  66 16 0  68 16 0  70 16 0  72 16 0  74 16 0  76 16 0  78 16 0  80 16 0  82 16 0  84 16 0  86 16 0  88 16 0  90 16 0  92 16 0  94 16 0  96 16 0  98 16 0  100 16 0  102 16 0  104 16 0  106 16 0  108 16 0  110 16 0  112 16 0  114 16 0  116 16 0  118 16 0  120 16 0  122 16 0  124 16 0  126 16 0  128 16 0  130 16 0  132 16 0  134 16 0  136 16 0  138 16 0  140 16 0  142 16 0  144 16 0  146 16 0  148 16 0  150 16 0  152 16 0  154 16 0  156 16 0  158 16 0  160 16 0  162 16 0  164 16 0  166 16 0  168 16 0  170 16 0  172 16 0  174 16 0  176 16 0  178 16 0  180 16 0  182 16 0  184 16 0  186 16 0  188 16 0  190 16 0  192 16 0  194 16 0  196 16 0  198 16 0  200 16 0  0 18 0  2 18 0  4 18 0  6 18 0  8 18 0  10 18 0  12 18 0  14 18 0  16 18 0  18 18 0  20 18 0  22 18 0  24 18 0  26 18 0  28 18 0  30 18 0  32 18 0  34 18 0  36 18 0  38 18 0  40 18 0  42 18 0  44 18 0  46 18 0  48 18 0  50 18 0  52 18 0  54 18 0  56 18 0  58 18 0  60 18 0  62 18 0  64 18 0  66 18 0  68 18 0  70 18 0  72 18 0  74 18 0  76 18 0  78 18 0  80 18 0  82 18 0  84 18 0  86 18 0  88 18 0  90 18 0  92 18 0  94 18 0  96 18 0  98 18 0  100 18 0  102 18 0  104 18 0  106 18 0  108 18 0  110 18 0  112 18 0  114 18 0  116 18 0  118 18 0  120 18 0  122 18 0  124 18 0  126 18 0  128 18 0  130 18 0  132 18 0  134 18 0  136 18 0  138 18 0  140 18 0  142 18 0  144 18 0  146 18 0  148 18 0  150 18 0  152 18 0  154 18 0  156 18 0  158 18 0  160 18 0  162 18 0  164 18 0  166 18 0  168 18 0  170 18 0  172 18 0  174 18 0  176 18 0  178 18 0  180 18 0  182 18 0  184 18 0  186 18 0  188 18 0  190 18 0  192 18 0  194 18 0  196 18 0  198 18 0  200 18 0  0 20 0  2 20 0  4 20 0  6 20 0  8 20 0  10 20 0  12 20 0  14 20 0  16 20 0  18 20 0  20 20 0  22 20 0  24 20 0  26 20 0  28 20 0  30 20 0  32 20 0  34 20 0  36 20 0  38 20 0  40 20 0  42 20 0  44 20 0  46 20 0  48 20 0  50 20 0  52 20 0  54 20 0  56 20 0  58 20 0  60 20 0  62 20 0  64 20 0  66 20 0  68 20 0  70 20 0  72 20 0  74 20 0  76 20 0  78 20 0  80 20 0  82 20 0  84 20 0  86 20 0  88 20 0  90 20 0  92 20 0  94 20 0  96 20 0  98 20 0  100 20 0  102 20 0  104 20 0  106 20 0  108 20 0  110 20 0  112 20 0  114 20 0  116 20 0  118 20 0  120 20 0  122 20 0  124 20 0  126 20 0  128 20 0  130 20 0  132 20 0  134 20 0  136 20 0  138 20 0  140 20 0  142 20 0  144 20 0  146 20 0  148 20 0  150 20 0  152 20 0  154 20 0  156 20 0
[...]
<PointData  Scalars="f_271-3"> 
<DataArray  type="Float64"  Name="f_271-3"  format="ascii">2.5985392548956393e-01  2.4555571526346839e-01  2.0633162773742722e-01  1.4563753266084006e-01  7.9088242477810697e-02  2.8139820420030603e-02  4.0924066200391457e-03  8.8483800342734811e-03  4.0256646171107718e-02  8.9882061144880149e-02  1.4397400771197219e-01  1.9128091574416198e-01  2.2516117631837682e-01  2.4073792055301582e-01  2.3487840496119680e-01  2.0874493951739861e-01  1.6856133879634264e-01  1.2303747129821684e-01  8.0186263804179633e-02  4.5572612418515894e-02  2.1705853803752052e-02  8.0865064341082427e-03  2.0548112457925557e-03  2.5695066882528079e-04  3.2633446996890073e-06  6.7300287528595181e-05  8.3968004160233614e-04  3.8914007573083659e-03  1.1163983872349313e-02  2.4092019722417292e-02  4.2923438626344332e-02  6.6365721399223407e-02  9.1488674430654018e-02  1.1385108852909981e-01  1.2817998725002308e-01  1.2996110688975862e-01  1.1757287352275476e-01  9.3844786087349696e-02  6.5448826425543907e-02  3.9542187916011891e-02  2.0228143308335181e-02  7.9839160964733751e-03  1.7181759921468460e-03  5.2326758888548964e-04  3.7179120820558299e-03  9.9862813724001243e-03  1.7135933510705952e-02  2.2723765087389502e-02  2.4916992428539671e-02  2.3148626132141539e-02  1.8200656151513415e-02  1.1736027179987266e-02  5.6503092396833479e-03  1.5334913534379841e-03  3.1998506785884068e-04  2.1156011225180386e-03  6.1899143010140743e-03  1.1104522021990309e-02  1.5017667629833965e-02  1.6367417241090625e-02  1.4749600945530968e-02  1.0968937565359497e-02  6.2557385867344408e-03  2.0667458455063082e-03  3.2257903073919946e-04  2.8530834597942979e-03  1.0874533064310002e-02  2.5410260624493718e-02  4.7612198538827546e-02  7.8085392725052938e-02  1.1476774411916744e-01  1.5065311682466406e-01  1.7558982905749260e-01  1.8265785801158194e-01  1.7181002221802774e-01  1.4759213381740108e-01  1.1581643158037065e-01  8.2060980441725689e-02  5.1134579433821097e-02  2.6621703581018605e-02  1.0389203920888225e-02  2.2754910366241162e-03  2.7241534068439435e-04  1.2872966710694689e-03  2.3020364546398162e-03  1.6989737282793022e-03  3.9189505766358887e-04  2.1467563977786508e-03  1.2800008030215682e-02  3.9256532717684596e-02  8.9932896245173172e-02  1.7730776680886406e-01  3.1982466166959167e-01  5.2331161571927087e-01  7.3246213866362508e-01  8.9418619295103563e-01  1.0061580475827896e+00  1.0694725709412469e+00  1.0837419377178181e+00  1.0484510777062144e+00  9.9620198744069455e-01  2.5154328674691739e-01  2.4023168296736810e-01  2.0543817320273719e-01  1.4916862600750541e-01  8.5132602681485633e-02  3.3398916424830012e-02  5.9908714785788858e-03  5.7281336972080082e-03  3.1315180739409962e-02  7.6177663333234641e-02  1.2802520869255191e-01  1.7507541597088933e-01  2.0966289829101237e-01  2.2664265818316714e-01  2.2305928626021382e-01  2.0000741992819840e-01  1.6318143171871724e-01  1.2064325021196344e-01  7.9971289988326727e-02  4.6583845059394863e-02  2.3091254533805006e-02  9.2713957011187811e-03  2.8002388813244627e-03  6.0173037166645941e-04  1.5652526289021421e-04  2.9875192587105212e-04  1.3837276659099250e-03  4.8769880199130682e-03  1.2571837248118037e-02  2.5732200343978332e-02  4.4430803258142686e-02  6.7216529448507700e-02  9.1053604848712361e-02  1.1152396407191031e-01  1.2360420014765000e-01  1.2326938342790121e-01  1.0946309412814924e-01  8.5368417941489916e-02  5.7636751542039080e-02  3.3151697519875581e-02  1.5644291651845225e-02  5.2716392656522700e-03  7.9117836551636925e-04  1.2138145635782714e-03  5.7027593375982306e-03  1.2722002486475354e-02  1.9918934682261934e-02  2.4852329803129986e-02  2.5902845813807213e-02  2.2887286289282636e-02  1.6986837095847227e-02  1.0123739175580690e-02  4.2556310593166984e-03  8.6184070337650927e-04  6.4981538807015293e-04  3.4488837425033455e-03  8.2716612890940365e-03  1.3505855151178624e-02  1.7273261581129074e-02  1.8124656812163933e-02  1.5844012571204193e-02  1.1424286310011824e-02  6.2693933617836766e-03  1.9491304709420697e-03  3.4823433608574826e-04  3.1436171686182908e-03  1.1396392670870611e-02  2.5962444912968959e-02  4.7746765638080065e-02  7.7023284672605094e-02  1.1156068457026387e-01  1.4483076462205821e-01  1.6777064786240561e-01  1.7425427975760047e-01  1.6418936616862831e-01  1.4163653901241180e-01  1.1192244573185625e-01  8.0211928647025629e-02  5.0947528784291471e-02  2.7439798851240524e-02  1.1463152755829238e-02  2.9917124557756148e-03  3.3305518806001788e-04  7.7100430380869158e-04  1.5810116541409883e-03  1.2081462000296612e-03  2.9608049249202871e-04  2.0609300292806672e-03  1.1744102732537830e-02  3.5779409046084551e-02  8.1959555163405279e-02  1.6117712509857987e-01  2.8890347460139582e-01  4.7395310279133962e-01  6.7653455491912085e-01  8.4012834825531713e-01  9.5545813246225919e-01  1.0245062325064418e+00  1.0470125489831934e+00  1.0216237248195059e+00  9.7713750379332409e-01  2.2467711870905605e-01  2.1760569077536793e-01  1.9017257325832501e-01  1.4319641334656044e-01  8.7474319336717662e-02  3.9056810100683750e-02  9.4423131932148477e-03  2.6572026157557151e-03  1.8595357860874965e-02  5.3428328044170165e-02  9.8338716340276369e-02  1.4227136020645059e-01  1.7632323261345395e-01  1.9482397222845252e-01  1.9516033845584052e-01  1.7835447287472428e-01  1.4900729617676728e-01  1.1365792463858222e-01  7.8683730780719566e-02  4.8898068091208273e-02  2.6901750616372296e-02  1.2974373747878238e-02  5.5809987409394524e-03  2.4123408202189945e-03  1.4768744613601081e-03  1.8096300188198730e-03  3.6416518682304408e-03  8.0668490240792517e-03  1.6381127959342549e-02  2.9349747604928519e-02  4.6649260840121241e-02  6.6612936481327781e-02  8.6262513936054275e-02  1.0165676885199129e-01  1.0876059982511627e-01  1.0485724449259318e-01  8.9980162415544254e-02  6.7545178516946094e-02  4.3391892293938673e-02  2.3120458279922727e-02  9.4809159474299395e-03  2.3019806493145105e-03  3.9601884043898386e-04  2.7619521110447643e-03  8.3469711019433512e-03  1.5412823904946745e-02  2.1641462724597861e-02  2.4913991306053856e-02  2.4166983324702747e-02  1.9816240603880941e-02  1.3435805217340314e-02  7.0121273173926017e-03  2.2832049011413044e-03  3.4260429977285399e-04  1.4650027073233516e-03  5.1068243607107306e-03  1.0059214011570432e-02  1.4717671121887309e-02  1.7484137680015711e-02  1.7351751337635404e-02  1.4417630365894617e-02  9.7595035456157150e-03  4.8340898470531947e-03  1.2144335175200917e-03  5.2141949966426696e-04  4.0335517590695700e-03  1.2512716317199472e-02  2.6482827968512580e-02  4.6298852447609680e-02  7.1565863791431011e-02  9.9953553898678507e-02  1.2639011317179524e-01  1.4447107690966532e-01  1.4984790631470996e-01  1.4221332019226174e-01  1.2435819462848566e-01  1.0031791368008974e-01  7.4181629542396904e-02  4.9508531261121196e-02  2.8986803368786732e-02  1.4165617176737323e-02  5.2712180196031397e-03  1.2682181137164210e-03  2.8728756002358458e-04  3.5938099904714147e-04  2.9229793402653944e-04  4.5956062750908275e-04  3.1855612480826533e-03  1.2539189907013734e-02  3.3817199141106764e-02  7.3404102178425829e-02  1.3940762967379344e-01  2.4213742103016134e-01  3.9026849293964333e-01  5.6882578688520402e-01  7.3083883444716391e-01  8.5092683568191674e-01  9.2831749771204453e-01  9.6333254882947050e-01  9.5378211023885295e-01  9.2230417967232847e-01  1.7932885366030313e-01  1.7697901502352378e-01  1.5887326720827799e-01  1.2452607517548278e-01  8.1769463040483575e-02  4.1655588592067930e-02  1.3488454435859044e-02  1.9676845969989918e-03  8.1592731113521912e-03  3.0346018987779440e-02  6.3501000167951363e-02  9.9660926050720341e-02  1.3052734809624408e-01  1.5004715399758239e-01  1.5538789003452030e-01  1.4696454497658024e-01  1.2787238169818321e-01  1.0270717142814344e-01  7.6213615561300282e-02  5.2261285340522462e-02  3.3265204335371244e-02  2.0013896886560981e-02  1.1939337538723241e-02  7.7686919334156697e-03  6.2719410421835913e-03  6.7884404766251289e-03  9.3742094835334577e-03  1.4578725368624810e-02  2.2978888324926842e-02  3.4664572823244526e-02  4.8866254718432214e-02  6.3834071656670960e-02  7.6991695627221801e-02  8.5395999938914363e-02  8.6538773210184938e-02  7.9327850175523323e-02  6.4809467646111507e-02  4.6172108836156273e-02  2.7763229390509906e-02  1.3287431335458597e-02  4.3462226576629756e-03  6.3646866135641403e-04  1.1596906925454183e-03  4.8703393784575938e-03  1.0504655436482033e-02  1.6339664524326045e-02  2.0477515122831493e-02  2.1518319624345163e-02  1.9164457486193116e-02  1.4323354044126714e-02  8.6181708652876207e-03  3.7097124736792790e-03  8.1074873665337331e-04  4.5593579592712545e-04  2.4596593291044419e-03  6.0211376740200787e-03  9.9499111859616563e-03  1.2971646742155412e-02  1.4083618187004480e-02  1.2903277835655863e-02  9.8340790248840036e-03  5.8859447759794089e-03  2.3216242823054577e-03  4.1926098789181134e-04  1.2917003309084827e-03  5.6916975600319226e-03  1.3987828037867550e-02  2.6265371121127527e-02  4.2279839825411433e-02  6.1150018071478435e-02  8.0930967288094249e-02  9.8526507086497669e-02  1.1049021681032112e-01  1.1446185919565148e-01  1.1006839847282088e-01  9.8692079168916966e-02  8.2666013591748466e-02  6.4555938383659195e-02  4.6707757248303297e-02  3.0987983573735618e-02  1.8612619229061544e-02  1.0030066200225953e-02  4.9255068521195777e-03  2.4302557524150943e-03  1.5342614994450000e-03  1.6137770662124984e-03  2.9371044984567718e-03  6.9846503720406121e-03  1.6469853047924841e-02  3.5122972483531571e-02  6.7494789552552364e-02  1.1898557464034017e-01  1.9569406525247895e-01  3.0284452505566845e-01  4.3845005021498901e-01  5.8138954451690050e-01  7.0240465981914957e-01  7.8832516049648249e-01  8.3684908102280564e-01  8.4589860864641564e-01  8.3068111440212311e-01  1.2229582155745861e-01  1.2458898340237565e-01  1.1712560539367228e-01  9.7327168243293669e-02  6.9825570654215824e-02  4.1135106662245673e-02  1.7707062650712240e-02  4.0362811613594328e-03  2.1724113004991394e-03  1.1990344865070651e-02  3.1293549511059296e-02  5.5834931194194665e-02  8.0082026101700760e-02  9.8888045420286841e-02  1.0900846199922139e-01  1.0962727604010303e-01  1.0199883862572838e-01  8.8658485795567871e-02  7.2577654996551874e-02  5.6478877010194349e-02  4.2383455264800099e-02  3.1408497442746978e-02  2.3828227079782573e-02  1.9362859029345057e-02  1.7559190664537355e-02  1.8088308258640252e-02  2.0845987805033255e-02  2.5843038800342714e-02  3.2960342849839536e-02  4.1691687816934074e-02  5.0994596968460315e-02  5.9323504381748902e-02  6.4868950354455807e-02  6.5990214710414830e-02  6.1762446247541868e-02  5.2443112763508104e-02  3.9604996006116167e-02  2.5786617069935902e-02  1.3697637578295061e-02  5.2611871048060047e-03  1.0818436346018358e-03  6.9856756379165625e-04  3.1633204793848060e-03  7.3418620559964638e-03  1.1932688324570924e-02  1.5548418910243365e-02  1.7040238883285166e-02  1.5924227872788337e-02  1.2608423193225651e-02  8.2074411111177463e-03  4.0528081718522397e-03  1.2195810784382804e-03  2.6032806677105352e-04  1.1412232509318344e-03  3.3246440306253320e-03  5.9590072162813770e-03  8.1317840191159115e-03  9.1275448309560744e-03  8.6315377213756622e-03  6.8203430900711020e-03  4.2979533273507266e-03  1.9060230788531098e-03  5.1014893418406787e-04  8.3609236741447328e-04  3.3630016340720072e-03  8.2827337217583272e-03  1.5524014802296241e-02  2.4787787847503982e-02  3.5543002525276098e-02  4.6984906874807469e-02  5.8011796719234468e-02  6.7316466637691544e-02  7.3653320132680750e-02  7.6190077429349690e-02  7.4735847120505031e-02  6.9726188311375031e-02  6.2029661912886162e-02  5.2712424451374529e-02  4.2848655171663419e-02  3.3393224075692993e-02  2.5094640732445685e-02  1.8431988710903735e-02  1.3590756280940947e-02  1.0511222559400464e-02  9.0281015195566444e-03  9.0853990274407138e-03  1.0978566777477747e-02  1.5557700988615981e-02  2.4330904029341464e-02  3.9447739276820597e-02  6.3604822207323677e-02  9.9924345100693521e-02  1.5168353104543797e-01  2.2151006449707625e-01  3.0982112646394061e-01  4.1192725613294995e-01  5.1505782541863809e-01  6.0327394202317619e-01  6.6580487422690637e-01  6.9754110143521919e-01  7.0251642925675473e-01  6.7325072877382736e-02  7.2472508332508248e-02  7.3816014855706519e-02  6.7225639320714167e-02  5.4287695506318623e-02  3.7890169416034215e-02  2.1638282086974034e-02  8.9102959142557201e-03  2.1134272350345142e-03  2.3479926816467296e-03  9.3824913277903814e-03  2.1749814450391414e-02  3.6960958801109882e-02  5.2019438057223207e-02  6.4224851527449889e-02  7.1877141187602467e-02  7.4524380685083019e-02  7.2763561261052170e-02  6.7828664188121682e-02  6.1173604516373610e-02  5.4149941129494047e-02  4.7808572387905361e-02  4.2826489579147822e-02  3.9539592850980021e-02  3.8035919669860578e-02  3.8247289002797322e-02  3.9990312603306745e-02  4.2945423312122734e-02  4.6603342277052956e-02  5.0231708506711562e-02  5.2911757079697003e-02  5.3671412314259891e-02  5.1707718383078888e-02  4.6651230636519950e-02  3.8780532138614626e-02  2.9073465894365807e-02  1.9023820886861869e-02  1.0252289055797999e-02  4.0401442335569913e-03  9.7736193192065409e-04  8.9215663846239413e-04  3.0477469310593894e-03  6.4167139025589105e-03  9.8930351409412982e-03  1.2459544776145685e-02  1.3377159487105380e-02  1.2384735265357074e-02  9.8036276484335817e-03  6.4341772837050318e-03  3.2529687716815704e-03  1.0642723223531997e-03  2.6696706595419941e-04  7.9235680728333743e-04  2.1870763246359024e-03  3.7935595220586144e-03  4.9721723975813224e-03  5.2999242339503011e-03  4.6879347132941333e-03  3.3877176377177165e-03  1.8938910468835777e-03  7.8620142157690039e-04  5.7119825127440458e-04  1.5716227895072829e-03  3.8820177243287400e-03  7.3850003734617763e-03  1.1808533083525030e-02  1.6798511642192433e-02  2.1984997267753274e-02  2.7029534445861512e-02  3.1650225680521317e-02  3.5629721115950690e-02  3.8815500823837799e-02  4.1118917219233893e-02  4.2513586377225049e-02  4.3030522047800730e-02  4.2747851736304188e-02  4.1776060909067422e-02  4.0243381225686228e-02  3.8286569825161272e-02  3.6049087178257583e-02  3.3684529284348598e-02  3.1361217000483034e-02  2.9265330909665262e-02  2.7604292518862060e-02  2.6616815883814975e-02  2.6597745274887605e-02  2.7942241858852898e-02  3.1205811932346235e-02  3.7167355068499323e-02  4.6876751756595655e-02  6.1670139006219794e-02  8.3137398898359346e-02  1.1300169372576316e-01  1.5281433367438160e-01  2.0339931054422086e-01  2.6421839147370801e-01  3.3268241051827058e-01  4.0335160817076693e-01  4.6849529075139729e-01  5.2089784374709214e-01  5.4724098763428941e-01  2.6732603675896405e-02  3.1983180899781555e-02  3.7603107690802634e-02  3.9775708839206933e-02  3.8047586273115372e-02  3.2706712087420854e-02  2.4855921748468603e-02  1.6150577913900430e-02  8.4091963186538280e-03  3.2126044337667547e-03  1.6074120856332424e-03  3.9661158670694033e-03  9.9843357002914468e-03  1.8778413124702638e-02  2.9078865648930995e-02  3.9514418590094184e-02  4.8917267863790956e-02  5.6539754373030077e-02  6.2115125834055637e-02  6.5775399851245461e-02  6.7892993936786120e-02  6.8918338649442440e-02  6.9258332168137232e-02  6.9206874176228422e-02  6.8916452988624519e-02  6.8393415329881732e-02  6.7505500393920101e-02  6.6000978919606351e-02  6.3546684800525818e-02  5.9793373988711922e-02  5.4470568644027717e-02  4.7499696148332618e-02  3.9096689730119379e-02  2.9821225844997270e-02  2.0531687390515065e-02  1.2232463825076036e-02  5.8468536255420001e-03  1.9872645664492368e-03  7.9919693848497990e-04  1.9267984047786231e-03  4.6037340405585851e-03  7.8354358461568858e-03  1.0622630528849739e-02  1.2178728326523267e-02  1.2100531991272607e-02  1.0453129140883808e-02  7.7338022279987342e-03  4.7067096883874745e-03  2.1535993893002686e-03  6.3071623176803448e-04  3.1765977069452326e-04  9.9837084349022791e-04  2.1678261397912592e-03  3.2259435223730907e-03  3.6952508849601496e-03  3.3868865826055090e-03  2.4566095129357128e-03  1.3365949882727407e-03  5.7675017519538436e-04  6.5830324798218682e-04  1.8435942267600810e-03  4.1042265503570419e-03  7.1392836452202927e-03  1.0469580950826654e-02  1.3576030398294622e-02  1.6038773423760967e-02  1.7633556410996905e-02  1.8358855405887116e-02  1.8396057127989422e-02  1.8030004559479219e-02  1.7566446345599920e-02  1.7275380497243802e-02  1.7371515648451009e-02  1.8023957976754448e-02  1.9374820746578713e-02  2.1545410343322611e-02  2.4618270566649267e-02  2.8598015339227779e-02  3.3365982883332181e-02  3.8648515383592076e-02  4.4017829438083661e-02  4.8942620966444465e-02  5.2898052771544461e-02  5.5516668311150243e-02  5.6718967882520371e-02  5.6753330918029359e-02  5.6133113023846971e-02  5.5531657094537723e-02  5.5705008428361923e-02  5.7464522032592974e-02  6.1684245685622342e-02  6.9324016427742247e-02  8.1447973153353573e-02  9.9200173329888744e-02  1.2368498998363731e-01  1.5573394368281707e-01  1.9564008717392004e-01  2.4291229791991426e-01  2.9603958475422598e-01  3.5313158752639501e-01  3.9188899754516560e-01  5.2993035142515346e-03  8.2704086436586350e-03  1.3360948713960139e-02  1.8791256688581445e-02  2.3532386882624465e-02  2.6522426669537337e-02  2.7013403538160539e-02  2.4798268025221198e-02  2.0289181286127615e-02  1.4433519209541249e-02  8.5185468314550993e-03  3.9198017907317749e-03  1.8397630839044091e-03  3.1030124944665320e-03  8.0583107028060832e-03  1.6566380357169678e-02  2.8027577395090524e-02  4.1461609105564040e-02  5.5689914271595774e-02  6.9591379646432680e-02  8.2280845377345938e-02  9.3100163857991539e-02  1.0149362761227430e-01  1.0693039350142977e-01  1.0895690269076871e-01  1.0732877369877421e-01  1.0210748868147172e-01  9.3654051001691621e-02  8.2552235692575290e-02  6.9539319139188344e-02  5.5477939575515153e-02  4.1339298354649119e-02  2.8151676715312039e-02  1.6895417575732312e-02  8.3620083654982122e-03  3.0180419904016491e-03  9.1443310935735518e-04  1.6623190663954484e-03  4.4793022200969729e-03  8.3050834696422327e-03  1.1983991349137846e-02  1.4495804085682859e-02  1.5185145717022825e-02  1.3916099043395838e-02  1.1087388359848746e-02  7.4890988941327006e-03  4.0447206950335332e-03  1.5293918928375252e-03  3.5923472605026158e-04  5.0826808495464714e-04  1.5594388587144687e-03  2.8635124906243770e-03  3.7635434620794011e-03  3.8278359893587051e-03  3.0176930177025583e-03  1.7188099050269837e-03  6.1188482741827835e-04  4.3193578350271322e-04  1.7105298067353820e-03  4.5852759994734040e-03  8.7251018762219256e-03  1.3390143129834879e-02  1.7621638338996763e-02  2.0519597192407663e-02  2.1516628417348464e-02  2.0538622585155483e-02  1.7989172485279266e-02  1.4577062447196814e-02  1.1069413398357406e-02  8.0698117259579115e-03  5.8980520840237480e-03  4.6035633496870933e-03  4.0942234616475181e-03  4.3201410994234734e-03  5.4303272532855379e-03  7.8292869148067993e-03  1.2102685520721287e-02  1.8838583136091529e-02  2.8405378835906440e-02  4.0733500278804097e-02  5.5120167515721824e-02  7.0123307236164764e-02  8.3727963747024514e-02  9.3914150625380513e-02  9.9367554539736169e-02  9.9823190723684688e-02  9.5901386063065336e-02  8.8774358755594779e-02  7.9935400884240948e-02  7.1012506521226398e-02  6.3525447469033006e-02  5.8681376087155311e-02  5.7358563897661023e-02  6.0277760510914900e-02  6.8231756504606653e-02  8.2239502464671668e-02  1.0354225150863269e-01  1.3341151595667403e-01  1.7286224309457779e-01  2.2341124070164309e-01  2.6356218056424063e-01  2.5902200703077634e-03  1.5755932182773276e-03  2.2449524884641829e-03  5.9508142379873239e-03  1.2326206159725883e-02  2.0219527892582845e-02  2.7890194467788600e-02  3.3487413748375952e-02  3.5610473600822916e-02  3.3676033662166018e-02  2.8013651895371257e-02  1.9844751479150834e-02  1.1161270545694655e-02  4.3304105212520864e-03  1.5139465033656080e-03  4.2624287370638054e-03  1.3353461191878663e-02  2.8636544873042465e-02  4.8880562321954646e-02  7.1985715697961125e-02  9.5616277443595535e-02  1.17645711548