<?xml version="1.0"?>
<VTKFile type="UnstructuredGrid"  version="0.1"  >
<UnstructuredGrid>
<Piece  NumberOfPoints="20201" NumberOfCells="40000">
<Points>
<DataArray  type="Float64"  NumberOfComponents="3"  format="ascii">0 0 0  2 0 0  4 0 0  6 0 0  8 0 0  10 0 0  12 0 0  14 0 0  16 0 0  18 0 0  20 0 0  22 0 0  24 0 0  26 0 0  28 0 0  30 0 0  32 0 0  34 0 0  36 0 0  38 0 0  40 0 0  42 0 0  44 0 0  46 0 0  48 0 0  50 0 0  52 0 0  54 0 0  56 0 0  58 0 0  60 0 0  62 0 0  64 0 0  66 0 0  68 0 0  70 0 0  72 0 0  74 0 0  76 0 0  78 0 0  80 0 0  82 0 0  84 0 0  86 0 0  88 0 0  90 0 0  92 0 0  94 0 0  96 0 0  98 0 0  100 0 0  102 0 0  104 0 0  106 0 0  108 0 0  110 0 0  112 0 0  114 0 0  116 0 0  118 0 0  120 0 0  122 0 0  124 0 0  126 0 0  128 0 0  130 0 0  132 0 0  134 0 0  136 0 0  138 0 0  140 0 0  142 0 0  144 0 0  146 0 0  148 0 0  150 0 0  152 0 0  154 0 0  156 0 0  158 0 0  160 0 0  162 0 0  164 0 0  166 0 0  168 0 0  170 0 0  172 0 0  174 0 0  176 0 0  178 0 0  180 0 0  182 0 0  184 0 0  186 0 0  188 0 0  190 0 0  192 0 0  194 0 0  196 0 0  198 0 0  200 0 0  0 2 0  2 2 0  4 2 0  6 2 0  8 2 0  10 2 0  12 2 0  14 2 0  16 2 0  18 2 0  20 2 0  22 2 0  24 2 0  26 2 0  28 2 0  30 2 0  32 2 0  34 2 0  36 2 0  38 2 0  40 2 0  42 2 0  44 2 0  46 2 0  48 2 0  50 2 0  52 2 0  54 2 0  56 2 0  58 2 0  60 2 0  62 2 0  64 2 0  66 2 0  68 2 0  70 2 0  72 2 0  74 2 0  76 2 0  78 2 0  80 2 0  82 2 0  84 2 0  86 2 0  88 2 0  90 2 0  92 2 0  94 2 0  96 2 0  98 2 0  100 2 0  102 2 0  104 2 0  106 2 0  108 2 0  110 2 0  112 2 0  114 2 0  116 2 0  118 2 0  120 2 0  122 2 0  124 2 0  126 2 0  128 2 0  130 2 0  132 2 0  134 2 0  136 2 0  138 2 0  140 2 0  142 2 0  144 2 0  146 2 0  148 2 0  150 2 0  152 2 0  154 2 0  156 2 0  158 2 0  160 2 0  162 2 0  164 2 0  166 2 0  168 2 0  170 2 0  172 2 0  174 2 0  176 2 0  178 2 0  180 2 0  182 2 0  184 2 0  186 2 0  188 2 0  190 2 0  192 2 0  194 2 0  196 2 0  198 2 0  200 2 0  0 4 0  2 4 0  4 4 0  6 4 0  8 4 0  10 4 0  12 4 0  14 4 0  16 4 0  18 4 0  20 4 0  22 4 0  24 4 0  26 4 0  28 4 0  30 4 0  32 4 0  34 4 0  36 4 0  38 4 0  40 4 0  42 4 0  44 4 0  46 4 0  48 4 0  50 4 0  52 4 0  54 4 0  56 4 0  58 4 0  60 4 0  62 4 0  64 4 0  66 4 0  68 4 0  70 4 0  72 4 0  74 4 0  76 4 0  78 4 0  80 4 0  82 4 0  84 4 0  86 4 0  88 4 0  90 4 0  92 4 0  94 4 0  96 4 0  98 4 0  100 4 0  102 4 0  104 4 0  106 4 0  108 4 0  110 4 0  112 4 0  114 4 0  116 4 0  118 4 0  120 4 0  122 4 0  124 4 0  126 4 0  128 4 0  130 4 0  132 4 0  134 4 0  136 4 0  138 4 0  140 4 0  142 4 0  144 4 0  146 4 0  148 4 0  150 4 0  152 4 0  154 4 0  156 4 0  158 4 0  160 4 0  162 4 0  164 4 0  166 4 0  168 4 0  170 4 0  172 4 0  174 4 0  176 4 0  178 4 0  180 4 0  182 4 0  184 4 0  186 4 0  188 4 0  190 4 0  192 4 0  194 4 0  196 4 0  198 4 0  200 4 0  0 6 0  2 6 0  4 6 0  6 6 0  8 6 0  10 6 0  12 6 0  14 6 0  16 6 0  18 6 0  20 6 0  22 6 0  24 6 0  26 6 0  28 6 0  30 6 0  32 6 0  34 6 0  36 6 0  38 6 0  40 6 0  42 6 0  44 6 0  46 6 0  48 6 0  50 6 0  52 6 0  54 6 0  56 6 0  58 6 0  60 6 0  62 6 0  64 6 0  66 6 0  68 6 0  70 6 0  72 6 0  74 6 0  76 6 0  78 6 0  80 6 0  82 6 0  84 6 0  86 6 0  88 6 0  90 6 0  92 6 0  94 6 0  96 6 0  98 6 0  100 6 0  102 6 0  104 6 0  106 6 0  108 6 0  110 6 0  112 6 0  114 6 0  116 6 0  118 6 0  120 6 0  122 6 0  124 6 0  126 6 0  128 6 0  130 6 0  132 6 0  134 6 0  136 6 0  138 6 0  140 6 0  142 6 0  144 6 0  146 6 0  148 6 0  150 6 0  152 6 0  154 6 0  156 6 0  158 6 0  160 6 0  162 6 0  164 6 0  166 6 0  168 6 0  170 6 0  172 6 0  174 6 0  176 6 0  178 6 0  180 6 0  182 6 0  184 6 0  186 6 0  188 6 0  190 6 0  192 6 0  194 6 0  196 6 0  198 6 0  200 6 0  0 8 0  2 8 0  4 8 0  6 8 0  8 8 0  10 8 0  12 8 0  14 8 0  16 8 0  18 8 0  20 8 0  22 8 0  24 8 0  26 8 0  28 8 0  30 8 0  32 8 0  34 8 0  36 8 0  38 8 0  40 8 0  42 8 0  44 8 0  46 8 0  48 8 0  50 8 0  52 8 0  54 8 0  56 8 0  58 8 0  60 8 0  62 8 0  64 8 0  66 8 0  68 8 0  70 8 0  72 8 0  74 8 0  76 8 0  78 8 0  80 8 0  82 8 0  84 8 0  86 8 0  88 8 0  90 8 0  92 8 0  94 8 0  96 8 0  98 8 0  100 8 0  102 8 0  104 8 0  106 8 0  108 8 0  110 8 0  112 8 0  114 8 0  116 8 0  118 8 0  120 8 0  122 8 0  124 8 0  126 8 0  128 8 0  130 8 0  132 8 0  134 8 0  136 8 0  138 8 0  140 8 0  142 8 0  144 8 0  146 8 0  148 8 0  150 8 0  152 8 0  154 8 0  156 8 0  158 8 0  160 8 0  162 8 0  164 8 0  166 8 0  168 8 0  170 8 0  172 8 0  174 8 0  176 8 0  178 8 0  180 8 0  182 8 0  184 8 0  186 8 0  188 8 0  190 8 0  192 8 0  194 8 0  196 8 0  198 8 0  200 8 0  0 10 0  2 10 0  4 10 0  6 10 0  8 10 0  10 10 0  12 10 0  14 10 0  16 10 0  18 10 0  20 10 0  22 10 0  24 10 0  26 10 0  28 10 0  30 10 0  32 10 0  34 10 0  36 10 0  38 10 0  40 10 0  42 10 0  44 10 0  46 10 0  48 10 0  50 10 0  52 10 0  54 10 0  56 10 0  58 10 0  60 10 0  62 10 0  64 10 0  66 10 0  68 10 0  70 10 0  72 10 0  74 10 0  76 10 0  78 10 0  80 10 0  82 10 0  84 10 0  86 10 0  88 10 0  90 10 0  92 10 0  94 10 0  96 10 0  98 10 0  100 10 0  102 10 0  104 10 0  106 10 0  108 10 0  110 10 0  112 10 0  114 10 0  116 10 0  118 10 0  120 10 0  122 10 0  124 10 0  126 10 0  128 10 0  130 10 0  132 10 0  134 10 0  136 10 0  138 10 0  140 10 0  142 10 0  144 10 0  146 10 0  148 10 0  150 10 0  152 10 0  154 10 0  156 10 0  158 10 0  160 10 0  162 10 0  164 10 0  166 10 0  168 10 0  170 10 0  172 10 0  174 10 0  176 10 0  178 10 0  180 10 0  182 10 0  184 10 0  186 10 0  188 10 0  190 10 0  192 10 0  194 10 0  196 10 0  198 10 0  200 10 0  0 12 0  2 12 0  4 12 0  6 12 0  8 12 0  10 12 0  12 12 0  14 12 0  16 12 0  18 12 0  20 12 0  22 12 0  24 12 0  26 12 0  28 12 0  30 12 0  32 12 0  34 12 0  36 12 0  38 12 0  40 12 0  42 12 0  44 12 0  46 12 0  48 12 0  50 12 0  52 12 0  54 12 0  56 12 0  58 12 0  60 12 0  62 12 0  64 12 0  66 12 0  68 12 0  70 12 0  72 12 0  74 12 0  76 12 0  78 12 0  80 12 0  82 12 0  84 12 0  86 12 0  88 12 0  90 12 0  92 12 0  94 12 0  96 12 0  98 12 0  100 12 0  102 12 0  104 12 0  106 12 0  108 12 0  110 12 0  112 12 0  114 12 0  116 12 0  118 12 0  120 12 0  122 12 0  124 12 0  126 12 0  128 12 0  130 12 0  132 12 0  134 12 0  136 12 0  138 12 0  140 12 0  142 12 0  144 12 0  146 12 0  148 12 0  150 12 0  152 12 0  154 12 0  156 12 0  158 12 0  160 12 0  162 12 0  164 12 0  166 12 0  168 12 0  170 12 0  172 12 0  174 12 0  176 12 0  178 12 0  180 12 0  182 12 0  184 12 0  186 12 0  188 12 0  190 12 0  192 12 0  194 12 0  196 12 0  198 12 0  200 12 0  0 14 0  2 14 0  4 14 0  6 14 0  8 14 0  10 14 0  12 14 0  14 14 0  16 14 0  18 14 0  20 14 0  22 14 0  24 14 0  26 14 0  28 14 0  30 14 0  32 14 0  34 14 0  36 14 0  38 14 0  40 14 0  42 14 0  44 14 0  46 14 0  48 14 0  50 14 0  52 14 0  54 14 0  56 14 0  58 14 0  60 14 0  62 14 0  64 14 0  66 14 0  68 14 0  70 14 0  72 14 0  74 14 0  76 14 0  78 14 0  80 14 0  82 14 0  84 14 0  86 14 0  88 14 0  90 14 0  92 14 0  94 14 0  96 14 0  98 14 0  100 14 0  102 14 0  104 14 0  106 14 0  108 14 0  110 14 0  112 14 0  114 14 0  116 14 0  118 14 0  120 14 0  122 14 0  124 14 0  126 14 0  128 14 0  130 14 0  132 14 0  134 14 0  136 14 0  138 14 0  140 14 0  142 14 0  144 14 0  146 14 0  148 14 0  150 14 0  152 14 0  154 14 0  156 14 0  158 14 0  160 14 0  162 14 0  164 14 0  166 14 0  168 14 0  170 14 0  172 14 0  174 14 0  176 14 0  178 14 0  180 14 0  182 14 0  184 14 0  186 14 0  188 14 0  190 14 0  192 14 0  194 14 0  196 14 0  198 14 0  200 14 0  0 16 0  2 16 0  4 16 0  6 16 0  8 16 0  10 16 0  12 16 0  14 16 0  16 16 0  18 16 0  20 16 0  22 16 0  24 16 0  26 16 0  28 16 0  30 16 0  32 16 0  34 16 0  36 16 0  38 16 0  40 16 0  42 16 0  44 16 0  46 16 0  48 16 0  50 16 0  52 16 0  54 16 0  56 16 0  58 16 0  60 16 0  62 16 0  64 16 0  66 16 0  68 16 0  70 16 0  72 16 0  74 16 0  76 16 0  78 16 0  80 16 0  82 16 0  84 16 0  86 16 0  88 16 0  90 16 0  92 16 0  94 16 0  96 16 0  98 16 0  100 16 0  102 16 0  104 16 0  106 16 0  108 16 0  110 16 0  112 16 0  114 16 0  116 16 0  118 16 0  120 16 0  122 16 0  124 16 0  126 16 0  128 16 0  130 16 0  132 16 0  134 16 0  136 16 0  138 16 0  140 16 0  142 16 0  144 16 0  146 16 0  148 16 0  150 16 0  152 16 0  154 16 0  156 16 0  158 16 0  160 16 0  162 16 0  164 16 0  166 16 0  168 16 0  170 16 0  172 16 0  174 16 0  176 16 0  178 16 0  180 16 0  182 16 0  184 16 0  186 16 0  188 16 0  190 16 0  192 16 0  194 16 0  196 16 0  198 16 0  200 16 0  0 18 0  2 18 0  4 18 0  6 18 0  8 18 0  10 18 0  12 18 0  14 18 0  16 18 0  18 18 0  20 18 0  22 18 0  24 18 0  26 18 0  28 18 0  30 18 0  32 18 0  34 18 0  36 18 0  38 18 0  40 18 0  42 18 0  44 18 0  46 18 0  48 18 0  50 18 0  52 18 0  54 18 0  56 18 0  58 18 0  60 18 0  62 18 0  64 18 0  66 18 0  68 18 0  70 18 0  72 18 0  74 18 0  76 18 0  78 18 0  80 18 0  82 18 0  84 18 0  86 18 0  88 18 0  90 18 0  92 18 0  94 18 0  96 18 0  98 18 0  100 18 0  102 18 0  104 18 0  106 18 0  108 18 0  110 18 0  112 18 0  114 18 0  116 18 0  118 18 0  120 18 0  122 18 0  124 18 0  126 18 0  128 18 0  130 18 0  132 18 0  134 18 0  136 18 0  138 18 0  140 18 0  142 18 0  144 18 0  146 18 0  148 18 0  150 18 0  152 18 0  154 18 0  156 18 0  158 18 0  160 18 0  162 18 0  164 18 0  166 18 0  168 18 0  170 18 0  172 18 0  174 18 0  176 18 0  178 18 0  180 18 0  182 18 0  184 18 0  186 18 0  188 18 0  190 18 0  192 18 0  194 18 0  196 18 0  198 18 0  200 18 0  0 20 0  2 20 0  4 20 0  6 20 0  8 20 0  10 20 0  12 20 0  14 20 0  16 20 0  18 20 0  20 20 0  22 20 0  24 20 0  26 20 0  28 20 0  30 20 0  32 20 0  34 20 0  36 20 0  38 20 0  40 20 0  42 20 0  44 20 0  46 20 0  48 20 0  50 20 0  52 20 0  54 20 0  56 20 0  58 20 0  60 20 0  62 20 0  64 20 0  66 20 0  68 20 0  70 20 0  72 20 0  74 20 0  76 20 0  78 20 0  80 20 0  82 20 0  84 20 0  86 20 0  88 20 0  90 20 0  92 20 0  94 20 0  96 20 0  98 20 0  100 20 0  102 20 0  104 20 0  106 20 0  108 20 0  110 20 0  112 20 0  114 20 0  116 20 0  118 20 0  120 20 0  122 20 0  124 20 0  126 20 0  128 20 0  130 20 0  132 20 0  134 20 0  136 20 0  138 20 0  140 20 0  142 20 0  144 20 0  146 20 0  148 20 0  150 20 0  152 20 0  154 20 0  156 20 0
[...]
<PointData  Scalars="f_271-3"> 
<DataArray  type="Float64"  Name="f_271-3"  format="ascii">7.6676551636259674e-10  7.3967723822392285e-10  6.6472882305273017e-10  5.5885571507377170e-10  4.4448123400893409e-10  3.4343109626392943e-10  2.7204959511399031e-10  2.3864556085869854e-10  2.4320169953270600e-10  2.7863965902064909e-10  3.3295121348816040e-10  3.9179534312443618e-10  4.4130019080633006e-10  4.7068622552753143e-10  4.7414856052424594e-10  4.5148524155082489e-10  4.0732675261690284e-10  3.4932416753306866e-10  2.8598441859119227e-10  2.2483188854846577e-10  1.7130096819906549e-10  1.2843033488850165e-10  9.7192985959826662e-11  7.7191207643543336e-11  6.7434919418358482e-11  6.6965238192711195e-11  7.5162869534459744e-11  9.1680262320098292e-11  1.1604153362442310e-10  1.4705102970182309e-10  1.8223185994383525e-10  2.1756550109283625e-10  2.4778401917550474e-10  2.6732325424398058e-10  2.7176575591087681e-10  2.5928565267294766e-10  2.3145744997539061e-10  1.9297757228489117e-10  1.5033445679146903e-10  1.0997548708833085e-10  7.6729747333355537e-11  5.3029292421865882e-11  3.9002384148326190e-11  3.3117093258380850e-11  3.2953420691688341e-11  3.5843296560576138e-11  3.9334674851512665e-11  4.1535950102826629e-11  4.1364000754072485e-11  3.8649384133417270e-11  3.4033190073275566e-11  2.8626084342822753e-11  2.3406791792192209e-11  1.8164066801541891e-11  1.0408375121967384e-11  2.1913761198425415e-12  1.7346846472332927e-13  1.5566207226297494e-14  1.3693221287201108e-15  1.5596127818460149e-16  4.8134576632563083e-17  1.6139581762571148e-15  1.0536769768281198e-14  4.7684914287562046e-15  3.6724613434292655e-16  8.3468528016307084e-18  2.6336839530434227e-18  2.5892792278831850e-17  3.4461040588120843e-16  6.6365370220999052e-15  1.5255082464999901e-13  2.9503175275467123e-12  4.7214618906793691e-11  2.1243626459457844e-10  3.2803400300681919e-10  3.4174359884461331e-10  3.0868567343258834e-10  2.5990767356969969e-10  2.1780037279744972e-10  2.4586447590612011e-10  7.2591723686275139e-10  4.2234429194028180e-09  2.8205221440573323e-08  1.9221196209201771e-07  1.3189883467126313e-06  9.1107237315623770e-06  6.3436784788889331e-05  4.4620713118162666e-04  3.1777334283598136e-03  2.2926893380804322e-02  1.5904558192633353e-01  6.2286613820165770e-01  9.2013941772343000e-01  9.8318839037207362e-01  9.9607122381501678e-01  9.9898103777081992e-01  9.9969433952220077e-01  9.9988767634484332e-01  9.9994646329748049e-01  9.9996580137254565e-01  9.9997053161702665e-01  7.4310787279994191e-10  7.1703455407785045e-10  6.4486037462250413e-10  5.4280932031863243e-10  4.3240119173418250e-10  3.3464262625041394e-10  2.6533813484848579e-10  2.3260672678967252e-10  2.3656040346796592e-10  2.7048499310122758e-10  3.2287059125771001e-10  3.7990693422782409e-10  4.2818826826476449e-10  4.5725387441672051e-10  4.6141949965915174e-10  4.4040204439977077e-10  3.9859392121994815e-10  3.4332707399136790e-10  2.8278747890789159e-10  2.2423567510644869e-10  1.7292756848764402e-10  1.3180890383939856e-10  1.0182706507962345e-10  8.2600033558096527e-11  7.3169521113515164e-11  7.2605878396960248e-11  8.0307604260949199e-11  9.5935621289592281e-11  1.1902591575662984e-10  1.4841903496367248e-10  1.8172232429464077e-10  2.1506653070832808e-10  2.4339619239819961e-10  2.6139278492715368e-10  2.6486090717853074e-10  2.5210708966132096e-10  2.2470172157169243e-10  1.8719741473716791e-10  1.4584404075178831e-10  1.0682870781189144e-10  7.4766994790951227e-11  5.1962413232037711e-11  3.8501842676217249e-11  3.2877924667820381e-11  3.2734633520965864e-11  3.5486494474039131e-11  3.8768512839953147e-11  4.0768844385152822e-11  4.0465069198322530e-11  3.7719582041447866e-11  3.3173311002871072e-11  2.7913672020974486e-11  2.2905770143845396e-11  1.8040194404281612e-11  1.1030282404251596e-11  2.7696583312190354e-12  2.5417084907251077e-13  2.4910650423028889e-14  2.6909287909929068e-15  3.3639388785942142e-16  5.5374231111685456e-16  1.0671560930348991e-14  6.6777056246330294e-14  2.6811886142172074e-14  1.5886438512546927e-15  5.8570374723530608e-17  1.3276813427657963e-17  6.8720167001581513e-17  6.7482858876157044e-16  1.1566267824272164e-14  2.1413827591435262e-13  3.9649525803489508e-12  5.5688094662755514e-11  2.1878423446321646e-10  3.2265735631118002e-10  3.3329617427267099e-10  3.0118629099087246e-10  2.5446939928975607e-10  2.1428844533845074e-10  2.4138678006615016e-10  7.0008806062764495e-10  4.0291444960365945e-09  2.6759560739855256e-08  1.8143241660033421e-07  1.2376326089806121e-06  8.4860408653951485e-06  5.8531202467923225e-05  4.0650118598992802e-04  2.8433396076029882e-03  1.9913239454143871e-02  1.3399454216312878e-01  5.6249995079848691e-01  9.0080878768311945e-01  9.7826083300861233e-01  9.9456683224907538e-01  9.9844213500166878e-01  9.9947035058430411e-01  9.9977689499722433e-01  9.9988016537248592e-01  9.9991725642861073e-01  9.9992681249903370e-01  6.7655107105324744e-10  6.5330953340537092e-10  5.8888562499857774e-10  4.9754075349100954e-10  3.9829153849893407e-10  3.0985806203143471e-10  2.4651584841311708e-10  2.1581804739475610e-10  2.1820097411807009e-10  2.4794131042265566e-10  2.9491194926902904e-10  3.4679491936419568e-10  3.9151249635642889e-10  4.1953130663904564e-10  4.2554421812897287e-10  4.0907709738729555e-10  3.7388160065955179e-10  3.2640665017664306e-10  2.7393292376768132e-10  2.2295963312244185e-10  1.7820799040545337e-10  1.4232136966431623e-10  1.1613227734537817e-10  9.9265280832595259e-11  9.0825951073868295e-11  8.9958074433741349e-11  9.6119645214245164e-11  1.0902082305228437e-10  1.2826703580228334e-10  1.5284047118661234e-10  1.8062190107270571e-10  2.0818890164614444e-10  2.3109674957792639e-10  2.4471567751757018e-10  2.4545975411009846e-10  2.3198549193647530e-10  2.0582883929955574e-10  1.7112006621119418e-10  1.3342744260640966e-10  9.8201845476448827e-11  6.9458472658817804e-11  4.9142099447886521e-11  3.7228238178723087e-11  3.2285913634332951e-11  3.2147942326677064e-11  3.4469914536451288e-11  3.7137851341634124e-11  3.8565932114393973e-11  3.7899275170727398e-11  3.5083090336385737e-11  3.0749919607053514e-11  2.5913974116226628e-11  2.1486445888772676e-11  1.7561109529137020e-11  1.2480765050925246e-11  4.9390451736401596e-12  7.4165597839730216e-13  8.7531205263532161e-14  1.5691755678261549e-14  5.1075640463656229e-15  9.5638808083077255e-15  1.6231502785418881e-13  6.7930670767039924e-13  2.4180355552445544e-13  1.5446954292438906e-14  6.4340855889489965e-16  1.4885835373924834e-16  4.2483994013962777e-16  3.6876850454435503e-15  4.3490880589489487e-14  5.4982201270556238e-13  8.8600499150957121e-12  8.3338769850654124e-11  2.3029457681066703e-10  3.0496952180247082e-10  3.0900503836290005e-10  2.7997084277287137e-10  2.3921511517971955e-10  2.0465479030736408e-10  2.2947427691541868e-10  6.3017214641597061e-10  3.5017104873332762e-09  2.2859137467266871e-08  1.5262356654194239e-07  1.0228082622830313e-06  6.8614862713683240e-06  4.6024691272241209e-05  3.0804001987887262e-04  2.0460900801648864e-03  1.3293380849884191e-02  8.1453086656610454e-02  3.8941103470737992e-01  8.1967764238964513e-01  9.5682007580075756e-01  9.8759646887804553e-01  9.9579964993460768e-01  9.9829603968031644e-01  9.9915997308166404e-01  9.9949255620378807e-01  9.9962513489191873e-01  9.9966126009923029e-01  5.7905900041570371e-10  5.5989809667705430e-10  5.0667191832500490e-10  4.3088016415457057e-10  3.4798602846527660e-10  2.7341359444735596e-10  2.1916984625826004e-10  1.9188599872958708e-10  1.9235561773022307e-10  2.1620359198529016e-10  2.5526697845009926e-10  2.9940681015167650e-10  3.3853803762916104e-10  3.6457676147452599e-10  3.7288435267466256e-10  3.6282407588949053e-10  3.3730293053569906e-10  3.0152744857714678e-10  2.6144987135617053e-10  2.2239810176968201e-10  1.8820882445210764e-10  1.6095156393970520e-10  1.4115098908164494e-10  1.2831744134863279e-10  1.2156535798323775e-10  1.2011740302064361e-10  1.2355089889511775e-10  1.3173265953752596e-10  1.4448781937273991e-10  1.6113384597288347e-10  1.8006660379438622e-10  1.9860070905466178e-10  2.1322447176283903e-10  2.2030852249375719e-10  2.1711224255337608e-10  2.0273555601027584e-10  1.7859340041260025e-10  1.4814168831910476e-10  1.1591630032419321e-10  8.6275570146299170e-11  6.2355215873575973e-11  4.5583867497627568e-11  3.5790814006243124e-11  3.1680718719144823e-11  3.1390950204290147e-11  3.2956566587086441e-11  3.4648935273407759e-11  3.5217158316701423e-11  3.4041311467448301e-11  3.1167652899612601e-11  2.7193576108049684e-11  2.3005193544469609e-11  1.9400952194076178e-11  1.6617506821582310e-11  1.3764313424261824e-11  8.8808450468044729e-12  3.1032383631912684e-12  6.7441207487126430e-13  1.8287685402226148e-13  1.2186387433896108e-13  3.9036654889116808e-13  2.0791073331934450e-12  4.1575976980041960e-12  1.8034944473976346e-12  1.7247026893079710e-13  1.8121263228217664e-14  5.5298930324752426e-15  7.8907647990853201e-15  3.2703623142370063e-14  2.4823544775994675e-13  2.2958608813067170e-12  2.6005837900372817e-11  1.2436078209199199e-10  2.3024716184856245e-10  2.7347632730777181e-10  2.7215001644685723e-10  2.4859778030051563e-10  2.1704684696093307e-10  1.9134988393870752e-10  2.1416320008547027e-10  5.3578767671106782e-10  2.7826559214965798e-09  1.7601573971823648e-08  1.1450994974132919e-07  7.4530025819670823e-07  4.8251002699684532e-06  3.0948527000235622e-05  1.9547037565120046e-04  1.2025178859400051e-03  7.0704944319046302e-03  3.8566773182136818e-02  1.8922624983296296e-01  5.9793377496294564e-01  8.8275417378657917e-01  9.6239057699221264e-01  9.8547431856252521e-01  9.9335389629049597e-01  9.9636989254248753e-01  9.9764976867197974e-01  9.9819642543876130e-01  9.9835044691576824e-01  4.6681041632076926e-10  4.5223572733909789e-10  4.1164656057043456e-10  3.5355703254679204e-10  2.8953624050712067e-10  2.3131023985294935e-10  1.8822855581448495e-10  1.6569932219044550e-10  1.6471533337292488e-10  1.8226043028948121e-10  2.1231005848589247e-10  2.4720873105678242e-10  2.7924281476364946e-10  3.0216144004887895e-10  3.1231424266421087e-10  3.0910575992691504e-10  2.9466129067246537e-10  2.7286987369601999e-10  2.4816475219043642e-10  2.2442746472934567e-10  2.0428230441592505e-10  1.8887617162048099e-10  1.7809234775314414e-10  1.7105082985726644e-10  1.6669867444823165e-10  1.6429106681943292e-10  1.6361381861623967e-10  1.6489353704151325e-10  1.6845224864261850e-10  1.7425001146545865e-10  1.8149817372399241e-10  1.8851403991582141e-10  1.9292743259636575e-10  1.9224024711375788e-10  1.8459386738174574e-10  1.6946823080752518e-10  1.4800529134768600e-10  1.2277637223461542e-10  9.7059382529228169e-11  7.3923077923044539e-11  5.5488196007769048e-11  4.2608141823804444e-11  3.4979725052830954e-11  3.1512536038392548e-11  3.0748904682195146e-11  3.1209058827866094e-11  3.1637927771897501e-11  3.1174214163569173e-11  2.9447630733766060e-11  2.6584371959945944e-11  2.3102816305161268e-11  1.9710398968372255e-11  1.7039647944919417e-11  1.5361799039943841e-11  1.4305678958050122e-11  1.2702590134060072e-11  9.2678904477230863e-12  5.2210362804293046e-12  3.0995488979248165e-12  3.1359667037134797e-12  5.7696904064504195e-12  1.1079045418099714e-11  1.3707542530919898e-11  8.9710790830807961e-12  2.3666737309343139e-12  3.6462415779814121e-13  1.0800778795320351e-13  1.1215574873765455e-13  3.4513398856335188e-13  1.8401688800630683e-12  1.3164508231449426e-11  6.5061097145284154e-11  1.5054846276376674e-10  2.0933435151679453e-10  2.3099150239171629e-10  2.2804330921304640e-10  2.1207395581522298e-10  1.9195650723544180e-10  1.7768988288109002e-10  2.0066090730356846e-10  4.4101751906262803e-10  2.0400819673392289e-09  1.2249056863124489e-08  7.6749590196793895e-08  4.7985596396556153e-07  2.9612118971531050e-06  1.7906164695106539e-05  1.0509433446056468e-04  5.9064282963164317e-04  3.1237543848948099e-03  1.5341952439874110e-02  6.7523239696131512e-02  2.6022606487845001e-01  6.2866059843653044e-01  8.6111048632955201e-01  9.4248966065073558e-01  9.7139015644199478e-01  9.8335169737364658e-01  9.8876639882769579e-01  9.9116387749186285e-01  9.9184653834073722e-01  3.5610809503372619e-10  3.4591335172979951e-10  3.1746470986171339e-10  2.7659140900195189e-10  2.3129102244333230e-10  1.8978242837939375e-10  1.5874211608623114e-10  1.4215389420043275e-10  1.4090576351867174e-10  1.5303241547592394e-10  1.7441833226824823e-10  1.9979516527950091e-10  2.2388032554485651e-10  2.4246269682843717e-10  2.5319429573330775e-10  2.5587803069368763e-10  2.5218164185398148e-10  2.4489741662299771e-10  2.3700638143087103e-10  2.3083354128373762e-10  2.2751090302190393e-10  2.2685216164094395e-10  2.2762902633764312e-10  2.2813690031669227e-10  2.2685582272078922e-10  2.2297911292482279e-10  2.1662847248064201e-10  2.0869673807905774e-10  2.0040518259687027e-10  1.9276214764329743e-10  1.8612731163982388e-10  1.8003293422799189e-10  1.7332395146747139e-10  1.6457749827632124e-10  1.5266390364973507e-10  1.3724174617353373e-10  1.1898182447205614e-10  9.9415002439408385e-11  8.0465217599305052e-11  6.3873298280171979e-11  5.0752021603350007e-11  4.1419369269481920e-11  3.5502805714839324e-11  3.2194073847999184e-11  3.0518708015735831e-11  2.9544683869536859e-11  2.8522486838645183e-11  2.6975470961625805e-11  2.4746785539364954e-11  2.1990822128306860e-11  1.9098824088439366e-11  1.6568415311532798e-11  1.4845753629972512e-11  1.4171688309853931e-11  1.4456047880093255e-11  1.5216779486665124e-11  1.5696410169964726e-11  1.5434275925253079e-11  1.5336286807716701e-11  1.7202454979982790e-11  2.1609077471674367e-11  2.6417573767663115e-11  2.8276727837387862e-11  2.4560924318588549e-11  1.4977967854250401e-11  6.3295566644104363e-12  3.0126159693923139e-12  2.6740451329256172e-12  4.8963018271714702e-12  1.4712264530609821e-11  4.5521258367014516e-11  9.7357708210697192e-11  1.4474895124423098e-10  1.7327261540919754e-10  1.8411283000172009e-10  1.8290811777790855e-10  1.7567518824421031e-10  1.6803498642848569e-10  1.6696478387346164e-10  1.9373627369451305e-10  3.6625814239763245e-10  1.4084900815599951e-09  7.7519498494014590e-09  4.6093322655234888e-08  2.7391453008347607e-07  1.5945293278363058e-06  8.9956589806987471e-06  4.8632530904797051e-05  2.4868996941613652e-04  1.1882966122743327e-03  5.2067138592994406e-03  2.0830320213777002e-02  7.3140928262395044e-02  2.2738205304559031e-01  5.0658483238389063e-01  7.4431384114268651e-01  8.6398673260249803e-01  9.1862836983285223e-01  9.4398916586706005e-01  9.5509776445345229e-01  9.5821910119267073e-01  2.5993906167649460e-10  2.5339241553586590e-10  2.3514274189242198e-10  2.0898821545808728e-10  1.8014381792774348e-10  1.5396019512812745e-10  1.3474610830667171e-10  1.2499502362532842e-10  1.2513080183957853e-10  1.3372014548297996e-10  1.4801953500634343e-10  1.6471600398967319e-10  1.8072449279055117e-10  1.9388857651466210e-10  2.0342122100008459e-10  2.0996282787129718e-10  2.1523551616517261e-10  2.2139496932429861e-10  2.3026741832862008e-10  2.4268175392087640e-10  2.5807728642797746e-10  2.7450807162317833e-10  2.8907681235213114e-10  2.9870702206471685e-10  3.0102455369345440e-10  2.9504053931922542e-10  2.8138110183923589e-10  2.6199429149110051e-10  2.3948449921464947e-10  2.1635481256074379e-10  1.9442313493227179e-10  1.7456056790224179e-10  1.5676426134507518e-10  1.4047698853051762e-10  1.2501169809781726e-10  1.0992501324466853e-10  9.5212470545001276e-11  8.1273700160276995e-11  6.8696246165991727e-11  5.7983450966711407e-11  4.9360065724500024e-11  4.2725972683739305e-11  3.7738644028866448e-11  3.3947925238128665e-11  3.0910416564892317e-11  2.8255091213649218e-11  2.5713223008865977e-11  2.3136207084978780e-11  2.0509402345850075e-11  1.7952499550518788e-11  1.5694553443804830e-11  1.4023291722780875e-11  1.3220009052429721e-11  1.3493139204497608e-11  1.4919112787701405e-11  1.7402561260354918e-11  2.0689908690043625e-11  2.4498500699779892e-11  2.8753609955660283e-11  3.3594904559880058e-11  3.8716188543640534e-11  4.2977370198883827e-11  4.4966643362956424e-11  4.3425675148693428e-11  3.7602666741506071e-11  2.8985261117406878e-11  2.2267233459187975e-11  2.1052969528955909e-11  2.7306775499371931e-11  4.3595984336580035e-11  6.9273955930783200e-11  9.6890092715791323e-11  1.1911209589798662e-10  1.3321304232716695e-10  1.3999168982272489e-10  1.4227208218859327e-10  1.4377167386048941e-10  1.4853638401228448e-10  1.6159568901849457e-10  1.9640403684260830e-10  3.2302077264531988e-10  9.5630450286291189e-10  4.5293407117338314e-09  2.4953965582046272e-08  1.3935542510010264e-07  7.5895521504116381e-07  3.9694400414349560e-06  1.9703616882439276e-05  9.1797646080363541e-05  3.9619278983270913e-04  1.5715191864035824e-03  5.6219520816947069e-03  1.8242201100505014e-02  5.2098426798550881e-02  1.3238403236670962e-01  2.7769838019137649e-01  4.6129665948517029e-01  6.1893228076266993e-01  7.1484906984463847e-01  7.6084968624933214e-01  7.7421239703921396e-01  1.8607560003946609e-10  1.8217096085509391e-10  1.7140569456030916e-10  1.5634278137904344e-10  1.4041473594750937e-10  1.2698263637016186e-10  1.1850941215968671e-10  1.1607701072020042e-10  1.1932770655365501e-10  1.2677410529596435e-10  1.3634946603192102e-10  1.4605236871534541e-10  1.5454286628747918e-10  1.6155486351791016e-10  1.6801601932840661e-10  1.7582860266729051e-10  1.8735076844073334e-10  2.0469272029888883e-10  2.2898159581602013e-10  2.5975961258754075e-10  2.9468238612402413e-10  3.2967238538594948e-10  3.5961098055609221e-10  3.7948253261568873e-10  3.8565709001287559e-10  3.7685346940824502e-10  3.5440158872437788e-10  3.2172126264257630e-10  2.8327999179819830e-10  2.4347089556393441e-10  2.0578507607962481e-10  1.7243685534327861e-10  1.4439438000701594e-10  1.2166339299995227e-10  1.0366216331685755e-10  8.9562647393104644e-11  7.8523921886488260e-11  6.9798971317524731e-11  6.2746834727136527e-11  5.6811089414518982e-11  5.1517863070965073e-11  4.6508402144302573e-11  4.1580708888543483e-11  3.6700955850912956e-11  3.1965320773734955e-11  2.7527362312985695e-11  2.3527508836621888e-11  2.0056182573737700e-11  1.7158730689065751e-11  1.4867916460591014e-11  1.3241806884106523e-11  1.2390608689002320e-11  1.2484502513866869e-11  1.3737360309942280e-11  1.6361000034109459e-11  2.0491320297845390e-11  2.6105727084123877e-11  3.2967173552282051e-11  4.0612611876791775e-11  4.8351794371032266e-11  5.5267350766859412e-11  6.0318877916967329e-11  6.2599705866887751e-11  6.1618180617676235e-11  5.7553066055141834e-11  5.1577793678100336e-11  4.6066454442530109e-11  4.3887720926345356e-11  4.6940003537352155e-11  5.5293317349065410e-11  6.7070849808390209e-11  7.9425961798426773e-11  9.0004241133089249e-11  9.7866742789940101e-11  1.0373004320738604e-10  1.0973661741977084e-10  1.1902440767982240e-10  1.3524294061868372e-10  1.6254588761969043e-10  2.0920984429746041e-10  3.1289640744532129e-10  6.8771742281966687e-10  2.5348136717254362e-09  1.2341281830580859e-08  6.3707474741734948e-08  3.2232017987965584e-07  1.5579869793325642e-06  7.1017188726393464e-06  3.0191434180167228e-05  1.1867805043113764e-04  4.2635130717632989e-04  1.3964819334747103e-03  4.1126476216551818e-03  1.0897228847758178e-02  2.5582812254785064e-02  5.3654432788534968e-02  1.0067840460425674e-01  1.6258598379353550e-01  2.2217442909130797e-01  2.6302296741350667e-01  2.7729759213078647e-01  1.3682944990525749e-10  1.3452247066421451e-10  1.2839197455462481e-10  1.2051945901687414e-10  1.1353320346079983e-10  1.0971660796732344e-10  1.1030146630237042e-10  1.1516229267304178e-10  1.2295788100886347e-10  1.3162914836707568e-10  1.3909232854221124e-10  1.4394790715000612e-10  1.4603155484812184e-10  1.4666024713876155e-10  1.4848974585488860e-10  1.5499685309104694e-10  1.6969428058170251e-10  1.9523422732822842e-10  2.3255607574286148e-10  2.8022831152809199e-10  3.3416384194474056e-10  3.87921034129