<?xml version="1.0"?>
<VTKFile type="UnstructuredGrid"  version="0.1"  >
<UnstructuredGrid>
<Piece  NumberOfPoints="20201" NumberOfCells="40000">
<Points>
<DataArray  type="Float64"  NumberOfComponents="3"  format="ascii">0 0 0  2 0 0  4 0 0  6 0 0  8 0 0  10 0 0  12 0 0  14 0 0  16 0 0  18 0 0  20 0 0  22 0 0  24 0 0  26 0 0  28 0 0  30 0 0  32 0 0  34 0 0  36 0 0  38 0 0  40 0 0  42 0 0  44 0 0  46 0 0  48 0 0  50 0 0  52 0 0  54 0 0  56 0 0  58 0 0  60 0 0  62 0 0  64 0 0  66 0 0  68 0 0  70 0 0  72 0 0  74 0 0  76 0 0  78 0 0  80 0 0  82 0 0  84 0 0  86 0 0  88 0 0  90 0 0  92 0 0  94 0 0  96 0 0  98 0 0  100 0 0  102 0 0  104 0 0  106 0 0  108 0 0  110 0 0  112 0 0  114 0 0  116 0 0  118 0 0  120 0 0  122 0 0  124 0 0  126 0 0  128 0 0  130 0 0  132 0 0  134 0 0  136 0 0  138 0 0  140 0 0  142 0 0  144 0 0  146 0 0  148 0 0  150 0 0  152 0 0  154 0 0  156 0 0  158 0 0  160 0 0  162 0 0  164 0 0  166 0 0  168 0 0  170 0 0  172 0 0  174 0 0  176 0 0  178 0 0  180 0 0  182 0 0  184 0 0  186 0 0  188 0 0  190 0 0  192 0 0  194 0 0  196 0 0  198 0 0  200 0 0  0 2 0  2 2 0  4 2 0  6 2 0  8 2 0  10 2 0  12 2 0  14 2 0  16 2 0  18 2 0  20 2 0  22 2 0  24 2 0  26 2 0  28 2 0  30 2 0  32 2 0  34 2 0  36 2 0  38 2 0  40 2 0  42 2 0  44 2 0  46 2 0  48 2 0  50 2 0  52 2 0  54 2 0  56 2 0  58 2 0  60 2 0  62 2 0  64 2 0  66 2 0  68 2 0  70 2 0  72 2 0  74 2 0  76 2 0  78 2 0  80 2 0  82 2 0  84 2 0  86 2 0  88 2 0  90 2 0  92 2 0  94 2 0  96 2 0  98 2 0  100 2 0  102 2 0  104 2 0  106 2 0  108 2 0  110 2 0  112 2 0  114 2 0  116 2 0  118 2 0  120 2 0  122 2 0  124 2 0  126 2 0  128 2 0  130 2 0  132 2 0  134 2 0  136 2 0  138 2 0  140 2 0  142 2 0  144 2 0  146 2 0  148 2 0  150 2 0  152 2 0  154 2 0  156 2 0  158 2 0  160 2 0  162 2 0  164 2 0  166 2 0  168 2 0  170 2 0  172 2 0  174 2 0  176 2 0  178 2 0  180 2 0  182 2 0  184 2 0  186 2 0  188 2 0  190 2 0  192 2 0  194 2 0  196 2 0  198 2 0  200 2 0  0 4 0  2 4 0  4 4 0  6 4 0  8 4 0  10 4 0  12 4 0  14 4 0  16 4 0  18 4 0  20 4 0  22 4 0  24 4 0  26 4 0  28 4 0  30 4 0  32 4 0  34 4 0  36 4 0  38 4 0  40 4 0  42 4 0  44 4 0  46 4 0  48 4 0  50 4 0  52 4 0  54 4 0  56 4 0  58 4 0  60 4 0  62 4 0  64 4 0  66 4 0  68 4 0  70 4 0  72 4 0  74 4 0  76 4 0  78 4 0  80 4 0  82 4 0  84 4 0  86 4 0  88 4 0  90 4 0  92 4 0  94 4 0  96 4 0  98 4 0  100 4 0  102 4 0  104 4 0  106 4 0  108 4 0  110 4 0  112 4 0  114 4 0  116 4 0  118 4 0  120 4 0  122 4 0  124 4 0  126 4 0  128 4 0  130 4 0  132 4 0  134 4 0  136 4 0  138 4 0  140 4 0  142 4 0  144 4 0  146 4 0  148 4 0  150 4 0  152 4 0  154 4 0  156 4 0  158 4 0  160 4 0  162 4 0  164 4 0  166 4 0  168 4 0  170 4 0  172 4 0  174 4 0  176 4 0  178 4 0  180 4 0  182 4 0  184 4 0  186 4 0  188 4 0  190 4 0  192 4 0  194 4 0  196 4 0  198 4 0  200 4 0  0 6 0  2 6 0  4 6 0  6 6 0  8 6 0  10 6 0  12 6 0  14 6 0  16 6 0  18 6 0  20 6 0  22 6 0  24 6 0  26 6 0  28 6 0  30 6 0  32 6 0  34 6 0  36 6 0  38 6 0  40 6 0  42 6 0  44 6 0  46 6 0  48 6 0  50 6 0  52 6 0  54 6 0  56 6 0  58 6 0  60 6 0  62 6 0  64 6 0  66 6 0  68 6 0  70 6 0  72 6 0  74 6 0  76 6 0  78 6 0  80 6 0  82 6 0  84 6 0  86 6 0  88 6 0  90 6 0  92 6 0  94 6 0  96 6 0  98 6 0  100 6 0  102 6 0  104 6 0  106 6 0  108 6 0  110 6 0  112 6 0  114 6 0  116 6 0  118 6 0  120 6 0  122 6 0  124 6 0  126 6 0  128 6 0  130 6 0  132 6 0  134 6 0  136 6 0  138 6 0  140 6 0  142 6 0  144 6 0  146 6 0  148 6 0  150 6 0  152 6 0  154 6 0  156 6 0  158 6 0  160 6 0  162 6 0  164 6 0  166 6 0  168 6 0  170 6 0  172 6 0  174 6 0  176 6 0  178 6 0  180 6 0  182 6 0  184 6 0  186 6 0  188 6 0  190 6 0  192 6 0  194 6 0  196 6 0  198 6 0  200 6 0  0 8 0  2 8 0  4 8 0  6 8 0  8 8 0  10 8 0  12 8 0  14 8 0  16 8 0  18 8 0  20 8 0  22 8 0  24 8 0  26 8 0  28 8 0  30 8 0  32 8 0  34 8 0  36 8 0  38 8 0  40 8 0  42 8 0  44 8 0  46 8 0  48 8 0  50 8 0  52 8 0  54 8 0  56 8 0  58 8 0  60 8 0  62 8 0  64 8 0  66 8 0  68 8 0  70 8 0  72 8 0  74 8 0  76 8 0  78 8 0  80 8 0  82 8 0  84 8 0  86 8 0  88 8 0  90 8 0  92 8 0  94 8 0  96 8 0  98 8 0  100 8 0  102 8 0  104 8 0  106 8 0  108 8 0  110 8 0  112 8 0  114 8 0  116 8 0  118 8 0  120 8 0  122 8 0  124 8 0  126 8 0  128 8 0  130 8 0  132 8 0  134 8 0  136 8 0  138 8 0  140 8 0  142 8 0  144 8 0  146 8 0  148 8 0  150 8 0  152 8 0  154 8 0  156 8 0  158 8 0  160 8 0  162 8 0  164 8 0  166 8 0  168 8 0  170 8 0  172 8 0  174 8 0  176 8 0  178 8 0  180 8 0  182 8 0  184 8 0  186 8 0  188 8 0  190 8 0  192 8 0  194 8 0  196 8 0  198 8 0  200 8 0  0 10 0  2 10 0  4 10 0  6 10 0  8 10 0  10 10 0  12 10 0  14 10 0  16 10 0  18 10 0  20 10 0  22 10 0  24 10 0  26 10 0  28 10 0  30 10 0  32 10 0  34 10 0  36 10 0  38 10 0  40 10 0  42 10 0  44 10 0  46 10 0  48 10 0  50 10 0  52 10 0  54 10 0  56 10 0  58 10 0  60 10 0  62 10 0  64 10 0  66 10 0  68 10 0  70 10 0  72 10 0  74 10 0  76 10 0  78 10 0  80 10 0  82 10 0  84 10 0  86 10 0  88 10 0  90 10 0  92 10 0  94 10 0  96 10 0  98 10 0  100 10 0  102 10 0  104 10 0  106 10 0  108 10 0  110 10 0  112 10 0  114 10 0  116 10 0  118 10 0  120 10 0  122 10 0  124 10 0  126 10 0  128 10 0  130 10 0  132 10 0  134 10 0  136 10 0  138 10 0  140 10 0  142 10 0  144 10 0  146 10 0  148 10 0  150 10 0  152 10 0  154 10 0  156 10 0  158 10 0  160 10 0  162 10 0  164 10 0  166 10 0  168 10 0  170 10 0  172 10 0  174 10 0  176 10 0  178 10 0  180 10 0  182 10 0  184 10 0  186 10 0  188 10 0  190 10 0  192 10 0  194 10 0  196 10 0  198 10 0  200 10 0  0 12 0  2 12 0  4 12 0  6 12 0  8 12 0  10 12 0  12 12 0  14 12 0  16 12 0  18 12 0  20 12 0  22 12 0  24 12 0  26 12 0  28 12 0  30 12 0  32 12 0  34 12 0  36 12 0  38 12 0  40 12 0  42 12 0  44 12 0  46 12 0  48 12 0  50 12 0  52 12 0  54 12 0  56 12 0  58 12 0  60 12 0  62 12 0  64 12 0  66 12 0  68 12 0  70 12 0  72 12 0  74 12 0  76 12 0  78 12 0  80 12 0  82 12 0  84 12 0  86 12 0  88 12 0  90 12 0  92 12 0  94 12 0  96 12 0  98 12 0  100 12 0  102 12 0  104 12 0  106 12 0  108 12 0  110 12 0  112 12 0  114 12 0  116 12 0  118 12 0  120 12 0  122 12 0  124 12 0  126 12 0  128 12 0  130 12 0  132 12 0  134 12 0  136 12 0  138 12 0  140 12 0  142 12 0  144 12 0  146 12 0  148 12 0  150 12 0  152 12 0  154 12 0  156 12 0  158 12 0  160 12 0  162 12 0  164 12 0  166 12 0  168 12 0  170 12 0  172 12 0  174 12 0  176 12 0  178 12 0  180 12 0  182 12 0  184 12 0  186 12 0  188 12 0  190 12 0  192 12 0  194 12 0  196 12 0  198 12 0  200 12 0  0 14 0  2 14 0  4 14 0  6 14 0  8 14 0  10 14 0  12 14 0  14 14 0  16 14 0  18 14 0  20 14 0  22 14 0  24 14 0  26 14 0  28 14 0  30 14 0  32 14 0  34 14 0  36 14 0  38 14 0  40 14 0  42 14 0  44 14 0  46 14 0  48 14 0  50 14 0  52 14 0  54 14 0  56 14 0  58 14 0  60 14 0  62 14 0  64 14 0  66 14 0  68 14 0  70 14 0  72 14 0  74 14 0  76 14 0  78 14 0  80 14 0  82 14 0  84 14 0  86 14 0  88 14 0  90 14 0  92 14 0  94 14 0  96 14 0  98 14 0  100 14 0  102 14 0  104 14 0  106 14 0  108 14 0  110 14 0  112 14 0  114 14 0  116 14 0  118 14 0  120 14 0  122 14 0  124 14 0  126 14 0  128 14 0  130 14 0  132 14 0  134 14 0  136 14 0  138 14 0  140 14 0  142 14 0  144 14 0  146 14 0  148 14 0  150 14 0  152 14 0  154 14 0  156 14 0  158 14 0  160 14 0  162 14 0  164 14 0  166 14 0  168 14 0  170 14 0  172 14 0  174 14 0  176 14 0  178 14 0  180 14 0  182 14 0  184 14 0  186 14 0  188 14 0  190 14 0  192 14 0  194 14 0  196 14 0  198 14 0  200 14 0  0 16 0  2 16 0  4 16 0  6 16 0  8 16 0  10 16 0  12 16 0  14 16 0  16 16 0  18 16 0  20 16 0  22 16 0  24 16 0  26 16 0  28 16 0  30 16 0  32 16 0  34 16 0  36 16 0  38 16 0  40 16 0  42 16 0  44 16 0  46 16 0  48 16 0  50 16 0  52 16 0  54 16 0  56 16 0  58 16 0  60 16 0  62 16 0  64 16 0  66 16 0  68 16 0  70 16 0  72 16 0  74 16 0  76 16 0  78 16 0  80 16 0  82 16 0  84 16 0  86 16 0  88 16 0  90 16 0  92 16 0  94 16 0  96 16 0  98 16 0  100 16 0  102 16 0  104 16 0  106 16 0  108 16 0  110 16 0  112 16 0  114 16 0  116 16 0  118 16 0  120 16 0  122 16 0  124 16 0  126 16 0  128 16 0  130 16 0  132 16 0  134 16 0  136 16 0  138 16 0  140 16 0  142 16 0  144 16 0  146 16 0  148 16 0  150 16 0  152 16 0  154 16 0  156 16 0  158 16 0  160 16 0  162 16 0  164 16 0  166 16 0  168 16 0  170 16 0  172 16 0  174 16 0  176 16 0  178 16 0  180 16 0  182 16 0  184 16 0  186 16 0  188 16 0  190 16 0  192 16 0  194 16 0  196 16 0  198 16 0  200 16 0  0 18 0  2 18 0  4 18 0  6 18 0  8 18 0  10 18 0  12 18 0  14 18 0  16 18 0  18 18 0  20 18 0  22 18 0  24 18 0  26 18 0  28 18 0  30 18 0  32 18 0  34 18 0  36 18 0  38 18 0  40 18 0  42 18 0  44 18 0  46 18 0  48 18 0  50 18 0  52 18 0  54 18 0  56 18 0  58 18 0  60 18 0  62 18 0  64 18 0  66 18 0  68 18 0  70 18 0  72 18 0  74 18 0  76 18 0  78 18 0  80 18 0  82 18 0  84 18 0  86 18 0  88 18 0  90 18 0  92 18 0  94 18 0  96 18 0  98 18 0  100 18 0  102 18 0  104 18 0  106 18 0  108 18 0  110 18 0  112 18 0  114 18 0  116 18 0  118 18 0  120 18 0  122 18 0  124 18 0  126 18 0  128 18 0  130 18 0  132 18 0  134 18 0  136 18 0  138 18 0  140 18 0  142 18 0  144 18 0  146 18 0  148 18 0  150 18 0  152 18 0  154 18 0  156 18 0  158 18 0  160 18 0  162 18 0  164 18 0  166 18 0  168 18 0  170 18 0  172 18 0  174 18 0  176 18 0  178 18 0  180 18 0  182 18 0  184 18 0  186 18 0  188 18 0  190 18 0  192 18 0  194 18 0  196 18 0  198 18 0  200 18 0  0 20 0  2 20 0  4 20 0  6 20 0  8 20 0  10 20 0  12 20 0  14 20 0  16 20 0  18 20 0  20 20 0  22 20 0  24 20 0  26 20 0  28 20 0  30 20 0  32 20 0  34 20 0  36 20 0  38 20 0  40 20 0  42 20 0  44 20 0  46 20 0  48 20 0  50 20 0  52 20 0  54 20 0  56 20 0  58 20 0  60 20 0  62 20 0  64 20 0  66 20 0  68 20 0  70 20 0  72 20 0  74 20 0  76 20 0  78 20 0  80 20 0  82 20 0  84 20 0  86 20 0  88 20 0  90 20 0  92 20 0  94 20 0  96 20 0  98 20 0  100 20 0  102 20 0  104 20 0  106 20 0  108 20 0  110 20 0  112 20 0  114 20 0  116 20 0  118 20 0  120 20 0  122 20 0  124 20 0  126 20 0  128 20 0  130 20 0  132 20 0  134 20 0  136 20 0  138 20 0  140 20 0  142 20 0  144 20 0  146 20 0  148 20 0  150 20 0  152 20 0  154 20 0  156 20 0
[...]
<PointData  Scalars="f_271-3"> 
<DataArray  type="Float64"  Name="f_271-3"  format="ascii">5.9338996048539675e-06  5.6456357636889732e-06  4.8640066030169261e-06  3.8023088501823926e-06  2.7185361007977115e-06  1.8306690633462705e-06  1.2706385140699758e-06  1.0808756481395915e-06  1.2329652000998208e-06  1.6478494614128859e-06  2.2113380094496072e-06  2.7900428587252260e-06  3.2536682334530514e-06  3.5025981305356221e-06  3.4913668422050730e-06  3.2360812722341560e-06  2.8012604437081398e-06  2.2735977721249798e-06  1.7360005801258331e-06  1.2510746209149424e-06  8.5537440448785128e-07  5.6133781905671320e-07  3.6361232131518171e-07  2.4741931954131779e-07  1.9689203493866638e-07  2.0136302667143893e-07  2.5814396878661001e-07  3.7139745185078940e-07  5.4768485992302280e-07  7.8930098747710559e-07  1.0867580023950623e-06  1.4123957168584414e-06  1.7184027449759805e-06  1.9433911939942935e-06  2.0294232733599382e-06  1.9447808606434414e-06  1.7007793387509702e-06  1.3510974399390967e-06  9.7196542103789943e-07  6.3387080194247741e-07  3.8019338700928064e-07  2.2222535184243520e-07  1.4846847541184442e-07  1.3792676613999574e-07  1.6843106566411145e-07  2.1876833354812355e-07  2.6886942126847997e-07  3.0164269664433884e-07  3.0643629980443222e-07  2.8180914988709331e-07  2.3553814406012478e-07  1.8151872262032823e-07  1.3484549576951832e-07  1.0688006004209324e-07  1.0137594048527509e-07  1.1046867887415929e-07  1.0451951248731575e-07  5.1040024598456008e-08  1.1750126199226341e-08  1.6107098678520034e-09  1.4426770993341911e-10  1.0285386853398680e-10  8.1956576558265739e-10  1.0707872962002501e-09  1.5692039509143982e-10  5.7340043814634169e-12  3.1863270737084836e-12  2.6648322109120077e-11  1.3791039195212655e-09  3.1487797402871073e-08  3.4789565251594978e-07  1.5321389592335701e-06  2.5786882762198832e-06  2.9305145945185027e-06  2.8784771769133830e-06  2.5812646088045014e-06  2.1460304770530384e-06  1.6668345825253573e-06  1.2153757085572179e-06  8.3514460253366037e-07  5.4417316153298253e-07  3.4195492900029662e-07  2.1868422401089048e-07  1.7464811801671328e-07  3.0672928375168561e-07  1.3501024272117358e-06  8.3527432274275533e-06  5.6142030282053258e-05  3.8834785441560640e-04  2.7353912766757867e-03  1.9553343530227620e-02  1.3560197034093527e-01  5.6863118702884707e-01  9.0225597153167170e-01  9.7833276070460740e-01  9.9442479534441630e-01  9.9831345312004471e-01  9.9936852099545248e-01  9.9969359825985282e-01  9.9980226052463006e-01  9.9982917160865969e-01  5.6958808687469759e-06  5.4226327984810623e-06  4.6806483975924375e-06  3.6699715183437864e-06  2.6340253273772471e-06  1.7804325344907827e-06  1.2368650950042833e-06  1.0464847554942284e-06  1.1845932507264372e-06  1.5773398692126864e-06  2.1163732642801186e-06  2.6740984505944359e-06  3.1251201895594024e-06  3.3728307314962803e-06  3.3721174302537370e-06  3.1367932747561528e-06  2.7273796448788202e-06  2.2262717424932285e-06  1.7129227803034491e-06  1.2478425519410854e-06  8.6682475764753639e-07  5.8258127908058428e-07  3.9066677097775244e-07  2.7742108821823289e-07  2.2792852823557917e-07  2.3203898214198156e-07  2.8703924601552450e-07  3.9657838210510406e-07  5.6640858192317072e-07  7.9803163625959687e-07  1.0816029035832561e-06  1.3900246302414139e-06  1.6773464104127888e-06  1.8852973316218958e-06  1.9595595301750891e-06  1.8711820905998867e-06  1.6321148353801672e-06  1.2941783811712049e-06  9.3010386488266268e-07  6.0676407744096555e-07  3.6508673374576053e-07  2.1547602627771061e-07  1.4666815734917153e-07  1.3830407403333831e-07  1.6882251725412259e-07  2.1757345430539634e-07  2.6515387627798726e-07  2.9527943641917802e-07  2.9809860259096368e-07  2.7272708714509071e-07  2.2707818504792719e-07  1.7474253739524826e-07  1.3020861619491118e-07  1.0417199761028670e-07  9.9970521516342800e-08  1.1027215758782104e-07  1.0927924831919233e-07  6.2208947232585167e-08  1.6909367610232056e-08  3.1101671399941513e-09  5.6282845449737482e-10  5.9272526316388960e-10  3.1625320524527262e-09  3.2120822819085709e-09  4.6532732395197422e-10  3.6864559883883945e-11  1.9871173717251314e-11  1.3484406878307614e-10  2.9556590011791338e-09  4.5348411603635163e-08  4.1935976664410605e-07  1.5831027701107235e-06  2.5096851023144426e-06  2.8233280619668434e-06  2.7718987909368961e-06  2.4903290373942234e-06  2.0775295555043787e-06  1.6220922925085722e-06  1.1920698554325759e-06  8.2907136819073005e-07  5.5062851971086677e-07  3.5662501711824873e-07  2.3802765552816346e-07  1.9524350851807824e-07  3.1928433169504487e-07  1.2953074310435761e-06  7.7835031322343715e-06  5.1545588287919818e-05  3.5106964289073384e-04  2.4204415615301680e-03  1.6700245969768098e-02  1.1031499631829744e-01  4.9254300230562542e-01  8.7168504179043771e-01  9.6951829835112024e-01  9.9132024587336676e-01  9.9699154697213954e-01  9.9870313583252635e-01  9.9928930863464804e-01  9.9950446202211496e-01  9.9956076300426588e-01  5.0375983983642328e-06  4.8049899712703093e-06  4.1706586814593994e-06  3.2994517413479570e-06  2.3956140223439892e-06  1.6382671311426337e-06  1.1426509294248621e-06  9.5303601683781079e-07  1.0542482364256163e-06  1.3864020332269276e-06  1.8572058498139200e-06  2.3553075315828349e-06  2.7693029729018348e-06  3.0114360127778285e-06  3.0380912704322232e-06  2.8571596924382106e-06  2.5183442032566646e-06  2.0921531741624722e-06  1.6482719900930235e-06  1.2410649420831199e-06  9.0382684728929787e-07  6.4964605405683525e-07  4.7625194794647945e-07  3.7281451280740517e-07  3.2687857445181170e-07  3.2966524688238490e-07  3.7845002034434290e-07  4.7563239949368685e-07  6.2500001783710075e-07  8.2622138313574824e-07  1.0688787392463679e-06  1.3278279631451672e-06  1.5625356749784519e-06  1.7233786181037402e-06  1.7658015899461441e-06  1.6680899047107176e-06  1.4435608354858413e-06  1.1386894968781498e-06  8.1651569211791217e-07  5.3399772149779066e-07  3.2535191746285052e-07  1.9853495700948404e-07  1.4290617927680574e-07  1.3988050864700235e-07  1.6967676552195532e-07  2.1337100761115072e-07  2.5357179757458699e-07  2.7631947255595025e-07  2.7394892620177427e-07  2.4698208835577868e-07  2.0352497765553774e-07  1.5615954599655436e-07  1.1760388361022298e-07  9.6706665657075085e-08  9.5692812602892695e-08  1.0831854331194739e-07  1.1684521295946899e-07  9.1923970009401728e-08  4.0811016726035223e-08  1.3368580775045785e-08  6.0050491273472335e-09  8.3424824691177639e-09  1.8823257199011875e-08  1.5948255788195719e-08  3.7938117531249315e-09  7.6901518305913810e-10  5.9086163084301925e-10  1.9244314433749998e-09  1.3954201538458165e-08  1.1309802368471667e-07  6.4893383323818721e-07  1.6443960575881556e-06  2.2918807104485977e-06  2.5222963030293753e-06  2.4750060299016761e-06  2.2366904898986992e-06  1.8859281597475836e-06  1.4968402642794802e-06  1.1275865130754970e-06  8.1449485756784493e-07  5.7346960262631887e-07  4.0513013282902961e-07  3.0219346329277656e-07  2.6509488850684207e-07  3.6911695010577018e-07  1.1689768028942547e-06  6.3330093595014189e-06  3.9972523009554024e-05  2.5999905855168793e-04  1.6852211804820499e-03  1.0615587282512230e-02  6.1797482975058098e-02  2.9717344899316789e-01  7.3550855019462558e-01  9.2775601218619086e-01  9.7548449402847315e-01  9.8990839906084516e-01  9.9489818224447002e-01  9.9686227445695197e-01  9.9766583260314257e-01  9.9788875021910028e-01  4.1056290763665681e-06  3.9281941128635049e-06  3.4409645983699280e-06  2.7628253237577892e-06  2.0455993987570023e-06  1.4285501328243942e-06  1.0076189845684272e-06  8.2615795343363139e-07  8.8033833789695210e-07  1.1287513370330958e-06  1.5014897877034956e-06  1.9107119498117263e-06  2.2659892901445046e-06  2.4936183508495868e-06  2.5536812991716125e-06  2.4470294814893307e-06  2.2088713236178766e-06  1.8930024856756762e-06  1.5547269126645818e-06  1.2387030905995237e-06  9.7347691559021223e-07  7.7143278284486989e-07  6.3223648271295764e-07  5.4812412679727320e-07  5.0949663933499628e-07  5.0929342627342522e-07  5.4499166131023270e-07  6.1785041556559086e-07  7.2983863889626934e-07  8.7922424724072555e-07  1.0560681141676188e-06  1.2391614861693223e-06  1.3963834175990803e-06  1.4903822974023881e-06  1.4896834418022449e-06  1.3816214254532784e-06  1.1803389742709443e-06  9.2412352384780911e-07  6.6220163941774035e-07  4.3767552900396683e-07  2.7542146168190972e-07  1.7994638186465618e-07  1.4144832391824694e-07  1.4394219164208442e-07  1.7049681131404625e-07  2.0513040616636561e-07  2.3376227417356871e-07  2.4594656344668608e-07  2.3700135496844986e-07  2.0904562990757101e-07  1.6994623227022072e-07  1.3041712843759372e-07  1.0044065932360277e-07  8.6273541257664774e-08  8.8726221675136959e-08  1.0263370605194053e-07  1.1689791164175904e-07  1.1559843292216520e-07  8.8664503504642501e-08  5.5940917076983610e-08  4.2037062391938445e-08  4.7735629990176508e-08  5.8895643337274499e-08  5.3860126689949431e-08  2.9132235843975047e-08  1.2722630826970090e-08  1.0267992592915237e-08  2.0409030772068649e-08  7.4860511525105182e-08  3.1742985296403064e-07  9.1895908022415977e-07  1.5505015709058668e-06  1.9343750420761842e-06  2.0853214207703205e-06  2.0487510697275958e-06  1.8714676565807755e-06  1.6085382702271334e-06  1.3153633917319220e-06  1.0367308891729659e-06  8.0137230542850696e-07  6.2222956020181875e-07  4.9991487967701422e-07  4.2833708741759344e-07  4.0682810842246755e-07  4.8940166063580772e-07  1.0662101160986056e-06  4.6034841703370149e-06  2.6383921396190331e-05  1.5899347239440158e-04  9.3931907252935685e-04  5.2412643797686313e-03  2.6719873587112638e-02  1.1964477453665119e-01  4.1286120280738231e-01  7.6192118410885812e-01  9.1048758861838652e-01  9.5863208264596300e-01  9.7698964284886602e-01  9.8492386236161178e-01  9.8839548265333044e-01  9.8938865201042447e-01  3.0855570834070879e-06  2.9649476572115454e-06  2.6306781230449681e-06  2.1571627853557948e-06  1.6436368001898462e-06  1.1867704487682832e-06  8.5895204150591059e-07  6.9861666825779096e-07  7.1076601729606555e-07  8.7184984625534098e-07  1.1355699229127957e-06  1.4403585335650244e-06  1.7204902999287411e-06  1.9202075626882083e-06  2.0065395447460963e-06  1.9752926907081703e-06  1.8476306841908448e-06  1.6596292215683843e-06  1.4501514840227988e-06  1.2515560285789211e-06  1.0849234476850737e-06  9.5933134912608040e-07  8.7403537291471755e-07  8.2241770023460748e-07  7.9647573340305129e-07  7.9048621297575321e-07  8.0270590482199760e-07  8.3467964698874335e-07  8.8859452866616209e-07  9.6371311432613533e-07  1.0531085676876018e-06  1.1419310481579378e-06  1.2084269125937163e-06  1.2285774841115066e-06  1.1838780505427230e-06  1.0695176178000717e-06  8.9862878150124092e-07  6.9938050584052682e-07  5.0555157654208274e-07  3.4521414278851355e-07  2.3319624031018150e-07  1.7026804954296788e-07  1.4759384486293129e-07  1.5235563045324090e-07  1.7143221167508438e-07  1.9293642572782411e-07  2.0712388249916934e-07  2.0765200327642925e-07  1.9281434129766057e-07  1.6577886957051739e-07  1.3332676411603314e-07  1.0347629211220719e-07  8.2936544057385831e-08  7.5266860788404189e-08  8.0131571951528766e-08  9.3550731729476704e-08  1.0886619514565078e-07  1.1848469767214372e-07  1.1732299234244100e-07  1.0831865476328538e-07  1.0249583257299956e-07  1.0548932127552419e-07  1.1260283461096490e-07  1.1615945137784337e-07  1.0714682189003121e-07  8.8805633644884418e-08  8.6190528181127926e-08  1.2859968885296216e-07  2.7050566254423597e-07  5.6972961584646839e-07  9.5332256350196088e-07  1.2819620387065795e-06  1.4988961244894259e-06  1.5931146450246933e-06  1.5726854913090071e-06  1.4614467104627433e-06  1.2947260498628668e-06  1.1102658675873891e-06  9.3957569165924880e-07  8.0321172564584321e-07  7.0993293861480851e-07  6.5841103561704172e-07  6.4112724759496763e-07  6.5336889423150130e-07  7.2612798127986645e-07  1.0967764578882448e-06  3.1864339191554699e-06  1.5135827550708378e-05  8.1586160647095847e-05  4.3095324114211488e-04  2.1242433903070745e-03  9.5064701142710071e-03  3.7696888663637435e-02  1.2941464409073991e-01  3.5535181823108641e-01  6.3891327525849184e-01  8.0889075128490628e-01  8.8769179936811893e-01  9.2441077673862482e-01  9.4078233622794127e-01  9.4544496101980646e-01  2.1446219218845095e-06  2.0723542169165390e-06  1.8699237488275483e-06  1.5774253305731655e-06  1.2514011728436796e-06  9.5093247677113989e-07  7.2418844924023603e-07  6.0038134819762602e-07  5.8791348455659902e-07  6.7619064610492603e-07  8.3892287899881681e-07  1.0388894077303240e-06  1.2350508796084164e-06  1.3915622262749102e-06  1.4860758807390987e-06  1.5139487258595162e-06  1.4866234162923470e-06  1.4253801340738476e-06  1.3535615298242151e-06  1.2901352891227608e-06  1.2459546437628655e-06  1.2228215554431877e-06  1.2149980561559468e-06  1.2126355490079055e-06  1.2061458866696740e-06  1.1899888919862560e-06  1.1643632254684750e-06  1.1341822590159700e-06  1.1059957586825069e-06  1.0843242623129889e-06  1.0688427297787214e-06  1.0533458411589147e-06  1.0269450389346223e-06  9.7749698239975532e-07  8.9649262825877773e-07  7.8357214157618522e-07  6.4829386739957793e-07  5.0771424593625054e-07  3.8057238953869761e-07  2.8093428736975529e-07  2.1444792226674973e-07  1.7859301195561042e-07  1.6578973425693330e-07  1.6691230613795531e-07  1.7349344538720836e-07  1.7860122880377233e-07  1.7727935353727487e-07  1.6708644702461687e-07  1.4850391482331811e-07  1.2469542771019767e-07  1.0043622032613235e-07  8.0567226811511160e-08  6.8602446784724487e-08  6.5969097766224530e-08  7.1976623769998350e-08  8.4304676347395544e-08  9.9751808303135262e-08  1.1515220928045381e-07  1.2849675978021088e-07  1.3991995155128494e-07  1.5135646529850655e-07  1.6436052784381438e-07  1.7850504901505171e-07  1.9196226460754864e-07  2.0273228968038319e-07  2.1223432194591353e-07  2.3427905429428719e-07  2.9538842503865652e-07  4.1684804628180207e-07  5.9039253879959638e-07  7.7958763743456714e-07  9.4740034079785696e-07  1.0672642695307862e-06  1.1254167449515655e-06  1.1219124441964397e-06  1.0700422330244737e-06  9.9225030811795269e-07  9.1367261809995266e-07  8.5596937274570113e-07  8.3311115755262583e-07  8.4926462887657574e-07  8.9859208588172217e-07  9.6754699950916609e-07  1.0419322212591426e-06  1.1287353693914325e-06  1.3489750206597291e-06  2.4086877601613826e-06  7.9966743867602088e-06  3.6191668752816111e-05  1.6850483073952959e-04  7.3500270925721482e-04  2.9071727016002731e-03  1.0252205367047856e-02  3.1803773058911536e-02  8.5799906245282248e-02  1.9745555374913126e-01  3.5871816410255108e-01  5.2259609535324592e-01  6.3993891102550915e-01  7.0141913934442868e-01  7.1976298653258108e-01  1.3939123911253078e-06  1.3561777602188001e-06  1.2497223683195643e-06  1.0939529610341341e-06  9.1754871695667586e-07  7.5199039798699345e-07  6.2413546425169921e-07  5.5103054181996573e-07  5.3825515756205852e-07  5.8085543079772993e-07  6.6554191287859182e-07  7.7375691707946090e-07  8.8577850564003685e-07  9.8547988965501834e-07  1.0643705073462160e-06  1.1232607802617251e-06  1.1707847820089203e-06  1.2194533882736304e-06  1.2808223781554608e-06  1.3612705161553429e-06  1.4592619899439717e-06  1.5645833149221316e-06  1.6600483446131299e-06  1.7258949868404728e-06  1.7459470349063153e-06  1.7131288669250869e-06  1.6316157360657802e-06  1.5145692052626938e-06  1.3789006359695604e-06  1.2398193174645981e-06  1.1073148293387542e-06  9.8521434065442807e-07  8.7236835065527302e-07  7.6517374233420176e-07  6.6054991294681689e-07  5.5831063333230960e-07  4.6189147871686937e-07  3.7701358253014298e-07  3.0896448335229058e-07  2.6002874647845729e-07  2.2850378133466771e-07  2.0967726703370497e-07  1.9789316348980032e-07  1.8835623400453189e-07  1.7789792100863031e-07  1.6487302807669221e-07  1.4880964441786891e-07  1.3020921204656781e-07  1.1044895062416372e-07  9.1541160937603994e-08  7.5647180607186549e-08  6.4519240414364343e-08  5.9173383584474634e-08  5.9952439783730533e-08  6.6848343210351200e-08  7.9782373260815059e-08  9.8625574728638536e-08  1.2297382857743868e-07  1.5185903842123162e-07  1.8355533399736125e-07  2.1553320116834091e-07  2.4466820707797350e-07  2.6791926061476343e-07  2.8346681280294664e-07  2.9200356787476273e-07  2.9801742830501964e-07  3.1048508895334124e-07  3.4065991916352744e-07  3.9545079922948679e-07  4.7207405725909855e-07  5.5910562617445845e-07  6.4116561476734418e-07  7.0424863622416568e-07  7.4023618578906688e-07  7.4984016516227130e-07  7.4299245823212798e-07  7.3647861659906204e-07  7.4978272380626389e-07  8.0045001958923091e-07  8.9965449291221883e-07  1.0481752792662301e-06  1.2335374655261838e-06  1.4303231014918972e-06  1.6066031307382569e-06  1.7415513509606818e-06  1.8763471057479725e-06  2.3149472047196335e-06  4.5110111884819796e-06  1.4786152159055343e-05  5.8277383874124916e-05  2.2436184711484964e-04  7.9169469979222570e-04  2.5066407935126524e-03  7.0459998030510890e-03  1.7473179821283654e-02  3.7853209395786194e-02  7.2747450148348478e-02  1.2218948973637406e-01  1.7461623948440891e-01  2.1321106557468025e-01  2.2712700373894770e-01  8.7964435971998583e-07  8.6171854607108341e-07  8.1219148582127177e-07  7.4274467317470801e-07  6.6932400964993838e-07  6.0755310848953502e-07  5.6844068123758481e-07  5.5612990607789179e-07  5.6818511373922833e-07  5.9763180374871906e-07  6.3569204677097570e-07  6.7461903602744904e-07  7.1032655538615912e-07  7.4428991826355311e-07  7.8397547111418575e-07  8.4139124495506332e-07  9.3008446957858268e-07  1.0614171400139843e-06  1.2409001054111969e-06  1.4650182435212401e-06  1.7188895705687217e-06  1.9756399487781152e-06  2.1991453945089537e-06  2.3514365871096212e-06  2.4035237754587025e-06  2.3450346487598698e-06  2.1873149760665941e-06  1.9582361424882783e-06  1.6920925240225117e-06  1.4201430877533942e-06  1.1653474670679524e-06  9.4141324108843550e-07  7.5436294252315525e-07  6.0489591258120417e-07  4.9059901836894431e-07  4.0756490028607486e-07  3.5119409287054815e-07  3.1624349344842030e-07  2.9658085946917316e-07  2.8529928624614560e-07  2.7557483072148125e-07  2.6203989839092104e-07  2.4195628228290497e-07  2.1551236559805315e-07  1.8510532301851619e-07  1.5405171635115507e-07  1.2537562562406755e-07  1.0111010787177980e-07  8.2170826340796830e-08  6.8588838709044359e-08  5.9855082884398544e-08  5.5292535678953888e-08  5.4518647470012074e-08  5.7973665651711209e-08  6.7243009450668401e-08  8.4816549281951595e-08  1.1316447774787451e-07  1.5338923763292823e-07  2.0397950213340822e-07  2.6024201910671575e-07  3.1482374275273434e-07  3.5938000006447263e-07  3.8696962732006003e-07  3.9437008309319505e-07  3.8345803749592857e-07  3.6111863776511525e-07  3.3754174805676003e-07  3.2312578405240070e-07  3.2490199694143227e-07  3.4405321304886456e-07  3.7576276880525888e-07  4.1148072455813786e-07  4.4273157523393895e-07  4.6517852226090243e-07  4.8157079604948940e-07  5.0259345902932773e-07  5.4548072523649654e-07  6.3096728749009728e-07  7.7909090629470227e-07  1.0037159320118064e-06  1.3055674066431777e-06  1.6651128219538090e-06  2.0393406609430787e-06  2.3680326090453506e-06  2.5936711461359522e-06  2.6994823540788731e-06  2.7958621760214844e-06  3.4074525140566427e-06  6.5194069974677456e-06  1.9040306181098820e-05  6.2677058652606341e-05  1.9748488099947056e-04  5.6672471325431184e-04  1.4585078072945142e-03  3.3388652993517889e-03  6.8188978449576368e-03  1.2393295490291367e-02  1.9881505714437815e-02  2.7975436930704613e-02  3.4376193151961401e-02  3.6820639465470630e-02  5.9548358026164699e-07  5.8457635967421661e-07  5.5746574746322200e-07  5.2815885884740027e-07  5.1236619083038846e-07  5.2072556067988891e-07  5.5492145941525546e-07  6.0758124294400959e-07  6.6515963723371133e-07  7.1235830969951476e-07  7.3681648888199346e-07  7.3328182227301392e-07  7.0655132933641236e-07  6.7218697234883502e-07  6.5422802126305881e-07  6.8029244851141245e-07  7.7567180409975734e-07  9.5804736577413767e-07  1.2333413047507565e-06  1.5922156198681884e-06  2.0069978737432873e-06  2.43055266869