<?xml version="1.0"?>
<VTKFile type="UnstructuredGrid"  version="0.1"  >
<UnstructuredGrid>
<Piece  NumberOfPoints="20201" NumberOfCells="40000">
<Points>
<DataArray  type="Float64"  NumberOfComponents="3"  format="ascii">0 0 0  2 0 0  4 0 0  6 0 0  8 0 0  10 0 0  12 0 0  14 0 0  16 0 0  18 0 0  20 0 0  22 0 0  24 0 0  26 0 0  28 0 0  30 0 0  32 0 0  34 0 0  36 0 0  38 0 0  40 0 0  42 0 0  44 0 0  46 0 0  48 0 0  50 0 0  52 0 0  54 0 0  56 0 0  58 0 0  60 0 0  62 0 0  64 0 0  66 0 0  68 0 0  70 0 0  72 0 0  74 0 0  76 0 0  78 0 0  80 0 0  82 0 0  84 0 0  86 0 0  88 0 0  90 0 0  92 0 0  94 0 0  96 0 0  98 0 0  100 0 0  102 0 0  104 0 0  106 0 0  108 0 0  110 0 0  112 0 0  114 0 0  116 0 0  118 0 0  120 0 0  122 0 0  124 0 0  126 0 0  128 0 0  130 0 0  132 0 0  134 0 0  136 0 0  138 0 0  140 0 0  142 0 0  144 0 0  146 0 0  148 0 0  150 0 0  152 0 0  154 0 0  156 0 0  158 0 0  160 0 0  162 0 0  164 0 0  166 0 0  168 0 0  170 0 0  172 0 0  174 0 0  176 0 0  178 0 0  180 0 0  182 0 0  184 0 0  186 0 0  188 0 0  190 0 0  192 0 0  194 0 0  196 0 0  198 0 0  200 0 0  0 2 0  2 2 0  4 2 0  6 2 0  8 2 0  10 2 0  12 2 0  14 2 0  16 2 0  18 2 0  20 2 0  22 2 0  24 2 0  26 2 0  28 2 0  30 2 0  32 2 0  34 2 0  36 2 0  38 2 0  40 2 0  42 2 0  44 2 0  46 2 0  48 2 0  50 2 0  52 2 0  54 2 0  56 2 0  58 2 0  60 2 0  62 2 0  64 2 0  66 2 0  68 2 0  70 2 0  72 2 0  74 2 0  76 2 0  78 2 0  80 2 0  82 2 0  84 2 0  86 2 0  88 2 0  90 2 0  92 2 0  94 2 0  96 2 0  98 2 0  100 2 0  102 2 0  104 2 0  106 2 0  108 2 0  110 2 0  112 2 0  114 2 0  116 2 0  118 2 0  120 2 0  122 2 0  124 2 0  126 2 0  128 2 0  130 2 0  132 2 0  134 2 0  136 2 0  138 2 0  140 2 0  142 2 0  144 2 0  146 2 0  148 2 0  150 2 0  152 2 0  154 2 0  156 2 0  158 2 0  160 2 0  162 2 0  164 2 0  166 2 0  168 2 0  170 2 0  172 2 0  174 2 0  176 2 0  178 2 0  180 2 0  182 2 0  184 2 0  186 2 0  188 2 0  190 2 0  192 2 0  194 2 0  196 2 0  198 2 0  200 2 0  0 4 0  2 4 0  4 4 0  6 4 0  8 4 0  10 4 0  12 4 0  14 4 0  16 4 0  18 4 0  20 4 0  22 4 0  24 4 0  26 4 0  28 4 0  30 4 0  32 4 0  34 4 0  36 4 0  38 4 0  40 4 0  42 4 0  44 4 0  46 4 0  48 4 0  50 4 0  52 4 0  54 4 0  56 4 0  58 4 0  60 4 0  62 4 0  64 4 0  66 4 0  68 4 0  70 4 0  72 4 0  74 4 0  76 4 0  78 4 0  80 4 0  82 4 0  84 4 0  86 4 0  88 4 0  90 4 0  92 4 0  94 4 0  96 4 0  98 4 0  100 4 0  102 4 0  104 4 0  106 4 0  108 4 0  110 4 0  112 4 0  114 4 0  116 4 0  118 4 0  120 4 0  122 4 0  124 4 0  126 4 0  128 4 0  130 4 0  132 4 0  134 4 0  136 4 0  138 4 0  140 4 0  142 4 0  144 4 0  146 4 0  148 4 0  150 4 0  152 4 0  154 4 0  156 4 0  158 4 0  160 4 0  162 4 0  164 4 0  166 4 0  168 4 0  170 4 0  172 4 0  174 4 0  176 4 0  178 4 0  180 4 0  182 4 0  184 4 0  186 4 0  188 4 0  190 4 0  192 4 0  194 4 0  196 4 0  198 4 0  200 4 0  0 6 0  2 6 0  4 6 0  6 6 0  8 6 0  10 6 0  12 6 0  14 6 0  16 6 0  18 6 0  20 6 0  22 6 0  24 6 0  26 6 0  28 6 0  30 6 0  32 6 0  34 6 0  36 6 0  38 6 0  40 6 0  42 6 0  44 6 0  46 6 0  48 6 0  50 6 0  52 6 0  54 6 0  56 6 0  58 6 0  60 6 0  62 6 0  64 6 0  66 6 0  68 6 0  70 6 0  72 6 0  74 6 0  76 6 0  78 6 0  80 6 0  82 6 0  84 6 0  86 6 0  88 6 0  90 6 0  92 6 0  94 6 0  96 6 0  98 6 0  100 6 0  102 6 0  104 6 0  106 6 0  108 6 0  110 6 0  112 6 0  114 6 0  116 6 0  118 6 0  120 6 0  122 6 0  124 6 0  126 6 0  128 6 0  130 6 0  132 6 0  134 6 0  136 6 0  138 6 0  140 6 0  142 6 0  144 6 0  146 6 0  148 6 0  150 6 0  152 6 0  154 6 0  156 6 0  158 6 0  160 6 0  162 6 0  164 6 0  166 6 0  168 6 0  170 6 0  172 6 0  174 6 0  176 6 0  178 6 0  180 6 0  182 6 0  184 6 0  186 6 0  188 6 0  190 6 0  192 6 0  194 6 0  196 6 0  198 6 0  200 6 0  0 8 0  2 8 0  4 8 0  6 8 0  8 8 0  10 8 0  12 8 0  14 8 0  16 8 0  18 8 0  20 8 0  22 8 0  24 8 0  26 8 0  28 8 0  30 8 0  32 8 0  34 8 0  36 8 0  38 8 0  40 8 0  42 8 0  44 8 0  46 8 0  48 8 0  50 8 0  52 8 0  54 8 0  56 8 0  58 8 0  60 8 0  62 8 0  64 8 0  66 8 0  68 8 0  70 8 0  72 8 0  74 8 0  76 8 0  78 8 0  80 8 0  82 8 0  84 8 0  86 8 0  88 8 0  90 8 0  92 8 0  94 8 0  96 8 0  98 8 0  100 8 0  102 8 0  104 8 0  106 8 0  108 8 0  110 8 0  112 8 0  114 8 0  116 8 0  118 8 0  120 8 0  122 8 0  124 8 0  126 8 0  128 8 0  130 8 0  132 8 0  134 8 0  136 8 0  138 8 0  140 8 0  142 8 0  144 8 0  146 8 0  148 8 0  150 8 0  152 8 0  154 8 0  156 8 0  158 8 0  160 8 0  162 8 0  164 8 0  166 8 0  168 8 0  170 8 0  172 8 0  174 8 0  176 8 0  178 8 0  180 8 0  182 8 0  184 8 0  186 8 0  188 8 0  190 8 0  192 8 0  194 8 0  196 8 0  198 8 0  200 8 0  0 10 0  2 10 0  4 10 0  6 10 0  8 10 0  10 10 0  12 10 0  14 10 0  16 10 0  18 10 0  20 10 0  22 10 0  24 10 0  26 10 0  28 10 0  30 10 0  32 10 0  34 10 0  36 10 0  38 10 0  40 10 0  42 10 0  44 10 0  46 10 0  48 10 0  50 10 0  52 10 0  54 10 0  56 10 0  58 10 0  60 10 0  62 10 0  64 10 0  66 10 0  68 10 0  70 10 0  72 10 0  74 10 0  76 10 0  78 10 0  80 10 0  82 10 0  84 10 0  86 10 0  88 10 0  90 10 0  92 10 0  94 10 0  96 10 0  98 10 0  100 10 0  102 10 0  104 10 0  106 10 0  108 10 0  110 10 0  112 10 0  114 10 0  116 10 0  118 10 0  120 10 0  122 10 0  124 10 0  126 10 0  128 10 0  130 10 0  132 10 0  134 10 0  136 10 0  138 10 0  140 10 0  142 10 0  144 10 0  146 10 0  148 10 0  150 10 0  152 10 0  154 10 0  156 10 0  158 10 0  160 10 0  162 10 0  164 10 0  166 10 0  168 10 0  170 10 0  172 10 0  174 10 0  176 10 0  178 10 0  180 10 0  182 10 0  184 10 0  186 10 0  188 10 0  190 10 0  192 10 0  194 10 0  196 10 0  198 10 0  200 10 0  0 12 0  2 12 0  4 12 0  6 12 0  8 12 0  10 12 0  12 12 0  14 12 0  16 12 0  18 12 0  20 12 0  22 12 0  24 12 0  26 12 0  28 12 0  30 12 0  32 12 0  34 12 0  36 12 0  38 12 0  40 12 0  42 12 0  44 12 0  46 12 0  48 12 0  50 12 0  52 12 0  54 12 0  56 12 0  58 12 0  60 12 0  62 12 0  64 12 0  66 12 0  68 12 0  70 12 0  72 12 0  74 12 0  76 12 0  78 12 0  80 12 0  82 12 0  84 12 0  86 12 0  88 12 0  90 12 0  92 12 0  94 12 0  96 12 0  98 12 0  100 12 0  102 12 0  104 12 0  106 12 0  108 12 0  110 12 0  112 12 0  114 12 0  116 12 0  118 12 0  120 12 0  122 12 0  124 12 0  126 12 0  128 12 0  130 12 0  132 12 0  134 12 0  136 12 0  138 12 0  140 12 0  142 12 0  144 12 0  146 12 0  148 12 0  150 12 0  152 12 0  154 12 0  156 12 0  158 12 0  160 12 0  162 12 0  164 12 0  166 12 0  168 12 0  170 12 0  172 12 0  174 12 0  176 12 0  178 12 0  180 12 0  182 12 0  184 12 0  186 12 0  188 12 0  190 12 0  192 12 0  194 12 0  196 12 0  198 12 0  200 12 0  0 14 0  2 14 0  4 14 0  6 14 0  8 14 0  10 14 0  12 14 0  14 14 0  16 14 0  18 14 0  20 14 0  22 14 0  24 14 0  26 14 0  28 14 0  30 14 0  32 14 0  34 14 0  36 14 0  38 14 0  40 14 0  42 14 0  44 14 0  46 14 0  48 14 0  50 14 0  52 14 0  54 14 0  56 14 0  58 14 0  60 14 0  62 14 0  64 14 0  66 14 0  68 14 0  70 14 0  72 14 0  74 14 0  76 14 0  78 14 0  80 14 0  82 14 0  84 14 0  86 14 0  88 14 0  90 14 0  92 14 0  94 14 0  96 14 0  98 14 0  100 14 0  102 14 0  104 14 0  106 14 0  108 14 0  110 14 0  112 14 0  114 14 0  116 14 0  118 14 0  120 14 0  122 14 0  124 14 0  126 14 0  128 14 0  130 14 0  132 14 0  134 14 0  136 14 0  138 14 0  140 14 0  142 14 0  144 14 0  146 14 0  148 14 0  150 14 0  152 14 0  154 14 0  156 14 0  158 14 0  160 14 0  162 14 0  164 14 0  166 14 0  168 14 0  170 14 0  172 14 0  174 14 0  176 14 0  178 14 0  180 14 0  182 14 0  184 14 0  186 14 0  188 14 0  190 14 0  192 14 0  194 14 0  196 14 0  198 14 0  200 14 0  0 16 0  2 16 0  4 16 0  6 16 0  8 16 0  10 16 0  12 16 0  14 16 0  16 16 0  18 16 0  20 16 0  22 16 0  24 16 0  26 16 0  28 16 0  30 16 0  32 16 0  34 16 0  36 16 0  38 16 0  40 16 0  42 16 0  44 16 0  46 16 0  48 16 0  50 16 0  52 16 0  54 16 0  56 16 0  58 16 0  60 16 0  62 16 0  64 16 0  66 16 0  68 16 0  70 16 0  72 16 0  74 16 0  76 16 0  78 16 0  80 16 0  82 16 0  84 16 0  86 16 0  88 16 0  90 16 0  92 16 0  94 16 0  96 16 0  98 16 0  100 16 0  102 16 0  104 16 0  106 16 0  108 16 0  110 16 0  112 16 0  114 16 0  116 16 0  118 16 0  120 16 0  122 16 0  124 16 0  126 16 0  128 16 0  130 16 0  132 16 0  134 16 0  136 16 0  138 16 0  140 16 0  142 16 0  144 16 0  146 16 0  148 16 0  150 16 0  152 16 0  154 16 0  156 16 0  158 16 0  160 16 0  162 16 0  164 16 0  166 16 0  168 16 0  170 16 0  172 16 0  174 16 0  176 16 0  178 16 0  180 16 0  182 16 0  184 16 0  186 16 0  188 16 0  190 16 0  192 16 0  194 16 0  196 16 0  198 16 0  200 16 0  0 18 0  2 18 0  4 18 0  6 18 0  8 18 0  10 18 0  12 18 0  14 18 0  16 18 0  18 18 0  20 18 0  22 18 0  24 18 0  26 18 0  28 18 0  30 18 0  32 18 0  34 18 0  36 18 0  38 18 0  40 18 0  42 18 0  44 18 0  46 18 0  48 18 0  50 18 0  52 18 0  54 18 0  56 18 0  58 18 0  60 18 0  62 18 0  64 18 0  66 18 0  68 18 0  70 18 0  72 18 0  74 18 0  76 18 0  78 18 0  80 18 0  82 18 0  84 18 0  86 18 0  88 18 0  90 18 0  92 18 0  94 18 0  96 18 0  98 18 0  100 18 0  102 18 0  104 18 0  106 18 0  108 18 0  110 18 0  112 18 0  114 18 0  116 18 0  118 18 0  120 18 0  122 18 0  124 18 0  126 18 0  128 18 0  130 18 0  132 18 0  134 18 0  136 18 0  138 18 0  140 18 0  142 18 0  144 18 0  146 18 0  148 18 0  150 18 0  152 18 0  154 18 0  156 18 0  158 18 0  160 18 0  162 18 0  164 18 0  166 18 0  168 18 0  170 18 0  172 18 0  174 18 0  176 18 0  178 18 0  180 18 0  182 18 0  184 18 0  186 18 0  188 18 0  190 18 0  192 18 0  194 18 0  196 18 0  198 18 0  200 18 0  0 20 0  2 20 0  4 20 0  6 20 0  8 20 0  10 20 0  12 20 0  14 20 0  16 20 0  18 20 0  20 20 0  22 20 0  24 20 0  26 20 0  28 20 0  30 20 0  32 20 0  34 20 0  36 20 0  38 20 0  40 20 0  42 20 0  44 20 0  46 20 0  48 20 0  50 20 0  52 20 0  54 20 0  56 20 0  58 20 0  60 20 0  62 20 0  64 20 0  66 20 0  68 20 0  70 20 0  72 20 0  74 20 0  76 20 0  78 20 0  80 20 0  82 20 0  84 20 0  86 20 0  88 20 0  90 20 0  92 20 0  94 20 0  96 20 0  98 20 0  100 20 0  102 20 0  104 20 0  106 20 0  108 20 0  110 20 0  112 20 0  114 20 0  116 20 0  118 20 0  120 20 0  122 20 0  124 20 0  126 20 0  128 20 0  130 20 0  132 20 0  134 20 0  136 20 0  138 20 0  140 20 0  142 20 0  144 20 0  146 20 0  148 20 0  150 20 0  152 20 0  154 20 0  156 20 0
[...]
<PointData  Scalars="f_271-3"> 
<DataArray  type="Float64"  Name="f_271-3"  format="ascii">3.0491388360825433e-01  2.8372953598801887e-01  2.3347907337498411e-01  1.6226655500718207e-01  8.7476196893425701e-02  2.9854150329289408e-02  2.4278284341215728e-03  9.4560761672744138e-03  4.8571025012734415e-02  1.0979987223681448e-01  1.7746113747396194e-01  2.3686873262656682e-01  2.7807123913997861e-01  2.9517567703383785e-01  2.8590653103051672e-01  2.5268302787071473e-01  2.0297504523332757e-01  1.4715455951000500e-01  9.5029638199518693e-02  5.3351210221161960e-02  2.4940956860387747e-02  8.9592604552007522e-03  2.0738740189779540e-03  1.8036809685062472e-04  -6.5105567935884510e-06  2.6115688845951532e-05  7.8297200615488774e-04  4.2104191621370702e-03  1.2664400805294013e-02  2.7780040198109902e-02  4.9606363130594917e-02  7.6236908665744341e-02  1.0396497603795352e-01  1.2790962274407591e-01  1.4309225565837308e-01  1.4579695223562325e-01  1.3481789771554403e-01  1.1222789951978472e-01  8.3120865376170902e-02  5.3768527288655034e-02  2.9162653587834438e-02  1.1842824353839978e-02  2.3844243025155005e-03  2.8310724159495042e-04  4.2262173762933229e-03  1.1967805192590934e-02  2.0568656550511103e-02  2.7147069065026570e-02  2.9716970858856273e-02  2.7706262025601565e-02  2.1960043974880196e-02  1.4311563849764865e-02  6.9526962626961387e-03  1.8183072653052185e-03  1.1260565517770051e-04  2.0421921293030808e-03  6.7885140461486351e-03  1.2708130014332011e-02  1.7748039755600180e-02  2.0092903997661015e-02  1.8870426940588086e-02  1.4458917625037792e-02  8.2948256082763360e-03  2.6044528701935402e-03  1.3007132957438471e-04  3.5397619472497181e-03  1.4770071492512585e-02  3.4783364928556618e-02  6.3474674208988682e-02  9.9203919500820498e-02  1.3792003595459204e-01  1.7286615952636938e-01  1.9644174982858986e-01  2.0355599489741399e-01  1.9337208735516759e-01  1.6859252650740386e-01  1.3409891021779613e-01  9.5859280551996273e-02  5.9843880974876855e-02  3.0871500884762631e-02  1.1630875297907578e-02  2.1724302063587985e-03  1.2235942192366338e-04  1.6579265458761684e-03  3.0159318672763878e-03  2.1821063227896150e-03  2.8415516097198142e-04  2.0774803987036652e-03  1.5182363813833441e-02  4.8549471685102541e-02  1.1116537816247081e-01  2.1125740783836389e-01  3.5420736581148921e-01  5.3442242438520648e-01  7.2500691470878798e-01  8.9383943637436714e-01  1.0219676846799772e+00  1.0976606211479902e+00  1.1140537535121797e+00  1.0689206734026739e+00  9.8567308081167615e-01  2.9332641205749055e-01  2.7800570212028491e-01  2.3456774184364462e-01  1.6910213249544062e-01  9.6922766729280296e-02  3.7671871515840991e-02  5.1560876885520463e-03  4.8386255029396197e-03  3.5756507403790314e-02  9.0069338813166880e-02  1.5382515296940541e-01  2.1236461292776138e-01  2.5486663509664464e-01  2.7479081715397918e-01  2.6952686501818396e-01  2.4106067679939622e-01  1.9613175640187294e-01  1.4432855444175430e-01  9.4975020696244583e-02  5.4746132136308238e-02  2.6698318853067435e-02  1.0394137457910409e-02  2.9251947661600793e-03  5.2027828131497251e-04  9.3314944164083743e-05  2.2566337401009112e-04  1.3815861365671230e-03  5.3879264114247150e-03  1.4429328541254328e-02  2.9938572405036466e-02  5.1753969200998354e-02  7.7781479122479819e-02  1.0419397791278129e-01  1.2611752850152433e-01  1.3876762510260734e-01  1.3882179580043583e-01  1.2559911609238916e-01  1.0168011949357343e-01  7.2468603586132885e-02  4.4255829829568820e-02  2.1789807294982040e-02  7.2179823102688804e-03  7.0774974837729398e-04  1.3627152733716114e-03  7.4749430183420019e-03  1.6448408892675008e-02  2.5151434442425746e-02  3.0763963451338514e-02  3.1642025143366864e-02  2.7751785828946912e-02  2.0494448211581827e-02  1.2102007488070802e-02  4.9139025040802744e-03  7.5571452936296578e-04  5.2174522308158413e-04  4.0038911772239437e-03  9.9776129287866382e-03  1.6507083829147385e-02  2.1436821291338632e-02  2.3064395145178346e-02  2.0795926780708084e-02  1.5348525235400668e-02  8.4495424518940959e-03  2.4804038013260142e-03  1.4758305594875714e-04  3.9136242305394565e-03  1.5430399022462307e-02  3.5366029357154528e-02  6.3346186713347130e-02  9.7553037697858655e-02  1.3401375900647627e-01  1.6647929255377772e-01  1.8814319448373937e-01  1.9451624044354454e-01  1.8489463073026388e-01  1.6175602189318411e-01  1.2956471124695856e-01  9.3762527410053476e-02  5.9780255962514975e-02  3.2026857696406855e-02  1.3046279812012507e-02  3.0629720521037737e-03  1.2698739942099000e-04  9.2130447257490874e-04  2.0598627529548226e-03  1.5752381933176940e-03  1.9003682040533417e-04  1.8578998725289212e-03  1.3253287676672939e-02  4.2509348722529788e-02  9.7972414074860487e-02  1.8729779584304909e-01  3.1573243710813598e-01  4.8032058188783355e-01  6.6019477881118427e-01  8.2472539987618287e-01  9.5370907147301309e-01  1.0356396147076425e+00  1.0633733617571708e+00  1.0332144004126362e+00  9.6433685611924080e-01  2.5832864071088285e-01  2.5011593605094734e-01  2.1691020131288408e-01  1.6284472869106348e-01  1.0003617067548504e-01  4.4617385719560559e-02  9.5886640570895382e-03  1.3691237121070342e-03  2.0598868593774602e-02  6.2377977953861109e-02  1.1633183470168905e-01  1.6954378729217739e-01  2.1092118337366023e-01  2.3332391826119095e-01  2.3382368014760926e-01  2.1378064725708584e-01  1.7852379029708670e-01  1.3581915228927291e-01  9.3529133424358785e-02  5.7649560302985667e-02  3.1327526826942960e-02  1.4801363832543749e-02  6.1361506062410963e-03  2.4979677401998218e-03  1.4534526802792230e-03  1.8321659433310751e-03  3.9373079030139736e-03  9.1226257240023239e-03  1.8948395544486775e-02  3.4247282099649390e-02  5.4434026635013850e-02  7.7273079912368273e-02  9.9143579810955187e-02  1.1575661642601467e-01  1.2323759468511279e-01  1.1931442201311047e-01  1.0421485343944489e-01  8.0949656373599840e-02  5.4635706884881556e-02  3.0713539091270635e-02  1.2984446850893765e-02  2.9040220860491171e-03  1.9730393598481108e-04  3.6043066936175851e-03  1.1102636949618336e-02  1.9979647019550521e-02  2.7307744656018391e-02  3.0779797226410728e-02  2.9449727919604610e-02  2.3955068348923407e-02  1.6127207963750018e-02  8.2772140453407066e-03  2.4955725550599894e-03  1.3943710444615991e-04  1.5584608400528461e-03  6.0720816682477792e-03  1.2181848682610491e-02  1.7959637653836215e-02  2.1555436309787821e-02  2.1767493084184592e-02  1.8483037310484333e-02  1.2715663936613766e-02  6.2757062105348186e-03  1.3923297782266260e-03  3.4927547994282124e-04  5.0241258474781674e-03  1.6516755698137642e-02  3.5044186757206976e-02  5.9886260134511128e-02  8.9131103868538827e-02  1.1932723436689767e-01  1.4563124814139708e-01  1.6305751413761788e-01  1.6831033577563190e-01  1.6077684390531527e-01  1.4225581122930012e-01  1.1616083064325181e-01  8.6710400754681019e-02  5.8140814470216740e-02  3.3961368979597756e-02  1.6346017866522809e-02  5.7809574012288667e-03  1.1159607434775090e-03  9.7711446223189218e-05  2.9587260067857657e-04  2.0638398196060114e-04  2.3685341531346993e-04  3.2234847374665921e-03  1.4233626789082014e-02  3.9742487149241605e-02  8.6589018891896727e-02  1.6100985189754879e-01  2.6727676866026934e-01  4.0444278792695904e-01  5.6025869953258167e-01  7.1101817857671090e-01  8.3563308230598332e-01  9.2189550901773731e-01  9.6244361743309570e-01  9.5225393850246809e-01  9.0462505778077706e-01  2.0340342943956369e-01  2.0234943563890925e-01  1.8140446373110697e-01  1.4248707476667924e-01  9.4222913286450868e-02  4.8152903664612626e-02  1.4850984624937011e-02  8.7629638954958588e-04  8.2674692656240605e-03  3.4790249345014020e-02  7.4103261078655100e-02  1.1691390827129323e-01  1.5368393022853297e-01  1.7729221309094403e-01  1.8426150667490332e-01  1.7484071193257747e-01  1.5243065059368027e-01  1.2241067667410636e-01  9.0588620819437402e-02  6.1794941815083389e-02  3.9018091282745124e-02  2.3191844629452903e-02  1.3592769167798727e-02  8.6618893738101832e-03  6.9049502873413712e-03  7.5253197453728337e-03  1.0599366270961362e-02  1.6793008110747017e-02  2.6775528018760146e-02  4.0580607786351489e-02  5.7167641466099359e-02  7.4346129937653480e-02  8.9099882942742320e-02  9.8257355935526702e-02  9.9369843109564190e-02  9.1541139156736298e-02  7.5906005998268869e-02  5.5532248586310125e-02  3.4617409246869436e-02  1.7117802443736212e-02  5.5135037331040092e-03  4.7797724300482311e-04  1.3249901362674568e-03  6.5152046256890198e-03  1.3918567151763312e-02  2.1080269688027512e-02  2.5742658356076909e-02  2.6507564300774205e-02  2.3283192335596538e-02  1.7227341963256062e-02  1.0228056001801321e-02  4.2354781614470111e-03  7.1621335177215236e-04  3.3079268876453971e-04  2.8440273478168190e-03  7.2532673530338685e-03  1.2090426228565989e-02  1.5822403386462198e-02  1.7270200147236962e-02  1.5958143142635391e-02  1.2271751899543687e-02  7.3459573605762852e-03  2.7679596568881207e-03  2.5029276412539067e-04  1.3210275021017116e-03  7.0428590223390285e-03  1.7842912712604603e-02  3.3471001737924146e-02  5.2982848523127152e-02  7.4678780838422179e-02  9.6085408175211301e-02  1.1420693453010100e-01  1.2618637092232352e-01  1.3012709500706185e-01  1.2558415832142109e-01  1.1353081148859005e-01  9.5991483115867499e-02  7.5564844590223182e-02  5.4940495545359930e-02  3.6457442094684343e-02  2.1741111720901100e-02  1.1469933582656451e-02  5.3525504826580925e-03  2.3794237135101575e-03  1.3296912828770218e-03  1.4245135239253767e-03  2.9572983151760425e-03  7.7019439123170528e-03  1.8937084368856206e-02  4.1055268014230262e-02  7.8888572402049828e-02  1.3691652098133897e-01  2.1824855053649922e-01  3.2287360766126155e-01  4.4494491033497963e-01  5.7096309757462205e-01  6.8388721850470635e-01  7.7035084981451940e-01  8.2200960755866370e-01  8.3309128483624251e-01  8.1036166899838880e-01  1.3779416194896749e-01  1.4280241892958312e-01  1.3459379388172371e-01  1.1242160366369507e-01  8.1248151189581619e-02  4.8097210905283301e-02  2.0358092321505285e-02  3.7738618698936839e-03  1.3247717051067332e-03  1.2981151905622672e-02  3.5868924313828134e-02  6.4782159429463415e-02  9.3348352386638939e-02  1.1575151301482214e-01  1.2820527811852883e-01  1.2954191178131882e-01  1.2097047966060220e-01  1.0533887511851697e-01  8.6195144932424736e-02  6.6894512217035476e-02  4.9950733157937188e-02  3.6747447982295352e-02  2.7625456575820211e-02  2.2252136013953403e-02  2.0086069973463256e-02  2.0732958435587562e-02  2.4062030261752531e-02  3.0068631723194988e-02  3.8575389312840866e-02  4.8926504528229831e-02  5.9828780338292649e-02  6.9434464178322622e-02  7.5677233746600694e-02  7.6791877398675309e-02  7.1873840112055720e-02  6.1283205417334549e-02  4.6712727066580050e-02  3.0832453392932082e-02  1.6563751913937167e-02  6.2240727752101918e-03  9.4007950023574348e-04  5.7954755941496999e-04  4.0537654523886968e-03  9.6882610371855724e-03  1.5555138136320800e-02  1.9841555581466736e-02  2.1283033975935655e-02  1.9528435937092178e-02  1.5226709218450679e-02  9.7433628916620413e-03  4.6465630843189262e-03  1.2103884081788826e-03  9.5740852828476080e-05  1.2468406350365285e-03  3.9833787879832022e-03  7.2434698570538556e-03  9.9065126096368611e-03  1.1110133547069096e-02  1.0482879374983694e-02  8.2354091760526264e-03  5.0888911919815304e-03  2.0762100562363517e-03  2.9643230079752687e-04  6.9395961502462049e-04  3.8970485230912237e-03  1.0131814533384225e-02  1.9212753404951256e-02  3.0584708681988960e-02  4.3382553874508949e-02  5.6496273990181298e-02  6.8660600643055347e-02  7.8600039519710854e-02  8.5229265632133594e-02  8.7853322652890059e-02  8.6290653635034284e-02  8.0880571973773185e-02  7.2392212828758240e-02  6.1877693104859861e-02  5.0507152251703658e-02  3.9407792764224889e-02  2.9518951077970774e-02  2.1479331397345185e-02  1.5576202209914753e-02  1.1791112007476756e-02  9.9586225031960632e-03  1.0019163582033218e-02  1.2310052912520056e-02  1.7812278864875079e-02  2.8265563386340776e-02  4.6090736645090342e-02  7.4111465173715696e-02  1.1510774259040304e-01  1.7119761759542532e-01  2.4295559501232611e-01  3.2829209506092283e-01  4.2151987064251778e-01  5.1347587281703133e-01  5.9365288959312423e-01  6.5302753099178779e-01  6.8501160637313807e-01  6.8880666509045863e-01  7.5504913694104420e-02  8.3753124513402999e-02  8.5673003110146459e-02  7.8491257636664841e-02  6.3811665509502763e-02  4.4767503540081077e-02  2.5480571810317071e-02  1.0041689495953743e-02  1.5594875778559988e-03  1.5572213900777708e-03  9.7965817922409069e-03  2.4437454075789285e-02  4.2464354815988523e-02  6.0382359843339319e-02  7.5075146788841127e-02  8.4513055447405033e-02  8.8039427145898463e-02  8.6224339039215656e-02  8.0458534490629133e-02  7.2476722556287274e-02  6.3943580297212921e-02  5.6178515701472323e-02  5.0045332106361265e-02  4.5984134685261031e-02  4.4121697134526315e-02  4.4380893291427095e-02  4.6530258896466038e-02  5.0161413433773568e-02  5.4630863417556387e-02  5.9030432072168189e-02  6.2245891243881642e-02  6.3130307416028389e-02  6.0770959437872030e-02  5.4780982877325031e-02  4.5513576411336222e-02  3.4096237492088732e-02  2.2229803560667834e-02  1.1783285996550923e-02  4.3057452587147056e-03  6.2793252962903691e-04  6.9645001508409255e-04  3.6689651622552775e-03  8.1865675917911426e-03  1.2715333178105090e-02  1.5891053036413243e-02  1.6827550190322647e-02  1.5328264100813144e-02  1.1916158100108728e-02  7.6345680849049437e-03  3.6791632742209993e-03  1.0116509117663005e-03  9.6792230957157497e-05  8.2531900638941496e-04  2.6139519956247738e-03  4.6326712989963681e-03  6.0838044242349744e-03  6.4473080958790414e-03  5.6219193366987526e-03  3.9294012099609366e-03  1.9945908811685406e-03  5.5227002862628797e-04  2.4884801193451726e-04  1.4960016194450040e-03  4.4049061912099802e-03  8.8007637646963684e-03  1.4296908539245734e-02  2.0397685135108538e-02  2.6599585254229445e-02  3.2468407269715095e-02  3.7682288712797232e-02  4.2041696374219409e-02  4.5454482134705147e-02  4.7906927524241992e-02  4.9431898111169208e-02  5.0083113173882608e-02  4.9920401370377863e-02  4.9006610744107094e-02  4.7414211754841298e-02  4.5238195935345872e-02  4.2610692620447144e-02  3.9711943235331358e-02  3.6772957881176759e-02  3.4068516019723265e-02  3.1905277414067915e-02  3.0616321117614389e-02  3.0575989384617582e-02  3.2243818821995701e-02  3.6233704238414308e-02  4.3388459832635839e-02  5.4827084114475642e-02  7.1928303591600518e-02  9.6219976394352105e-02  1.2915106761026252e-01  1.7172513003397405e-01  2.2400117226712529e-01  2.8457490812876396e-01  3.5025475894922303e-01  4.1611841386343873e-01  4.7607635190045117e-01  5.2431915728632084e-01  5.5227650111088800e-01  2.8943701296915352e-02  3.6806832760716120e-02  4.3770147959562855e-02  4.6742925832555647e-02  4.5066171127689535e-02  3.8960537012500615e-02  2.9646127894500170e-02  1.9068947115992260e-02  9.4594119744344993e-03  2.8323622850701556e-03  5.7183154513618182e-04  3.2019296692583745e-03  1.0363963236206130e-02  2.0962517748658947e-02  3.3437172241334495e-02  4.6115206506903067e-02  5.7564738678811969e-02  6.6843482663728249e-02  7.3577822343278601e-02  7.7884412359097280e-02  8.0201706510808060e-02  8.1105204103186085e-02  8.1154015914482180e-02  8.0785300854873870e-02  8.0253247520302259e-02  7.9602988331333918e-02  7.8672645796585339e-02  7.7122890602858984e-02  7.4498074811739493e-02  7.0322585189205963e-02  6.4228564618574013e-02  5.6096922681959802e-02  4.6176643152417436e-02  3.5136452487856892e-02  2.4008598867762687e-02  1.4012917471138562e-02  6.2941658043313099e-03  1.6454961692055061e-03  3.0248559558484329e-04  1.8701376207603108e-03  5.4050356685413914e-03  9.6336300001639355e-03  1.3253404122883432e-02  1.5242200938539263e-02  1.5097176317118171e-02  1.2937556010758194e-02  9.4344486692365167e-03  5.5800495896499375e-03  2.3677510501135739e-03  4.9155655137728669e-04  1.6193787054896453e-04  1.0870620435113104e-03  2.6135573167857329e-03  3.9754096434159291e-03  4.5671573060539787e-03  4.1488396331213493e-03  2.9152874607908325e-03  1.4135046301381707e-03  3.4622893355137728e-04  3.3564727411759826e-04  1.7275073840870268e-03  4.4937134575698265e-03  8.2534604582639656e-03  1.2395289940582676e-02  1.6255252482059706e-02  1.9293442293125088e-02  2.1215746825699225e-02  2.2010590614058325e-02  2.1903636226576501e-02  2.1261742278787688e-02  2.0489108165136667e-02  1.9951228598970257e-02  1.9942096812532981e-02  2.0687237756582582e-02  2.2359794896630016e-02  2.5085031716871039e-02  2.8919650094837181e-02  3.3809956602869631e-02  3.9548417712162880e-02  4.5754646639791487e-02  5.1902430053799804e-02  5.7401369987890520e-02  6.1722741746132952e-02  6.4537102917833961e-02  6.5815768089405910e-02  6.5856251213558037e-02  6.5228111025337140e-02  6.4676882708492117e-02  6.5037653905729659e-02  6.7191181436022415e-02  7.2065754845700450e-02  8.0664499480931004e-02  9.4081294580197289e-02  1.1345816213100028e-01  1.3984130669588754e-01  1.7392361597127462e-01  2.1572032449527140e-01  2.6427525234003879e-01  3.1738873316750243e-01  3.7241046226162605e-01  4.1677545182039255e-01  4.3409032230560148e-03  8.5950360267684628e-03  1.4982400789316400e-02  2.1855795617678916e-02  2.7884525440941853e-02  3.1717853830398948e-02  3.2406218703084425e-02  2.9674608157111045e-02  2.4024546383796527e-02  1.6644783801553455e-02  9.1702302798198475e-03  3.3490348406679097e-03  6.9634028168916824e-04  2.2281260356297001e-03  8.3306329719677868e-03  1.8749610042095979e-02  3.2662912933474918e-02  4.8832870930017133e-02  6.5840141348448886e-02  8.2339004708213495e-02  9.7225287486576467e-02  1.0966386509950603e-01  1.1902867480786658e-01  1.2484861332218744e-01  1.2680731161148842e-01  1.2477886925693731e-01  1.1885621884825465e-01  1.0935195583021272e-01  9.6785876546240601e-02  8.1880632824035321e-02  6.5564113565652032e-02  4.8951349770151163e-02  3.3275012071152639e-02  1.9753344485425157e-02  9.4127239230028161e-03  2.9051327706435454e-03  3.6897312475175068e-04  1.3722405911829236e-03  4.9591351254982775e-03  9.8041357332610494e-03  1.4459113273278427e-02  1.7652822822759519e-02  1.8573219567389585e-02  1.7049193146053184e-02  1.3565562406516333e-02  9.0943052723737681e-03  4.7888419065130446e-03  1.6385858071102147e-03  1.9313090612046676e-04  4.3557855283135090e-04  1.8331805921092291e-03  3.5440877831870343e-03  4.7188688720892170e-03  4.8052363909662586e-03  3.7542097411224764e-03  2.0506423553557293e-03  5.5160538623960696e-04  1.8896530707161245e-04  1.6415796374487262e-03  5.0868526316125004e-03  1.0108120198824490e-02  1.5785136827538741e-02  2.0944494098770024e-02  2.4497914949444463e-02  2.5758215540260365e-02  2.4620899282541412e-02  2.1549343496081782e-02  1.7381586711700550e-02  1.3044117968789511e-02  9.2846362325416220e-03  6.5185733187655675e-03  4.8350358147578546e-03  4.1451048772575775e-03  4.4005171053706381e-03  5.7826515139359604e-03  8.7719581373346713e-03  1.4055356249267209e-02  2.2294995427037004e-02  3.3834075496596616e-02  4.8430312614999360e-02  6.5096014588039597e-02  8.2121824871018781e-02  9.7360838621136689e-02  1.0876177207873282e-01  1.1494593551194986e-01  1.1553488544558295e-01  1.1112141688163595e-01  1.0302108214977355e-01  9.2968398865630714e-02  8.2809740088740674e-02  7.4217983573849178e-02  6.8516594627121591e-02  6.6696432407508430e-02  6.9601769121888715e-02  7.8162553941890853e-02  9.3531030432041404e-02  1.1702242546938305e-01  1.4983552248426404e-01  1.9252830644161886e-01  2.4553911975934375e-01  2.9657654589254956e-01  2.3369185062482186e-03  6.3508434638847092e-04  1.6084675505646628e-03  6.3471229453689170e-03  1.4335409636315978e-02  2.4098291485924458e-02  3.3490148504954492e-02  4.0271306108597214e-02  4.2737887887326180e-02  4.0172198726801535e-02  3.3025083570011056e-02  2.2885155182006983e-02  1.2230512115129535e-02  3.9155682238684311e-03  5.3857556329239028e-04  3.9587114644281385e-03  1.5026584407641432e-02  3.3417504653634612e-02  5.7593214034390661e-02  8.5079522285993872e-02  1.1302679290553024e-01  1.3868190935