<?xml version="1.0"?>
<VTKFile type="UnstructuredGrid"  version="0.1"  >
<UnstructuredGrid>
<Piece  NumberOfPoints="20201" NumberOfCells="40000">
<Points>
<DataArray  type="Float64"  NumberOfComponents="3"  format="ascii">0 0 0  2 0 0  4 0 0  6 0 0  8 0 0  10 0 0  12 0 0  14 0 0  16 0 0  18 0 0  20 0 0  22 0 0  24 0 0  26 0 0  28 0 0  30 0 0  32 0 0  34 0 0  36 0 0  38 0 0  40 0 0  42 0 0  44 0 0  46 0 0  48 0 0  50 0 0  52 0 0  54 0 0  56 0 0  58 0 0  60 0 0  62 0 0  64 0 0  66 0 0  68 0 0  70 0 0  72 0 0  74 0 0  76 0 0  78 0 0  80 0 0  82 0 0  84 0 0  86 0 0  88 0 0  90 0 0  92 0 0  94 0 0  96 0 0  98 0 0  100 0 0  102 0 0  104 0 0  106 0 0  108 0 0  110 0 0  112 0 0  114 0 0  116 0 0  118 0 0  120 0 0  122 0 0  124 0 0  126 0 0  128 0 0  130 0 0  132 0 0  134 0 0  136 0 0  138 0 0  140 0 0  142 0 0  144 0 0  146 0 0  148 0 0  150 0 0  152 0 0  154 0 0  156 0 0  158 0 0  160 0 0  162 0 0  164 0 0  166 0 0  168 0 0  170 0 0  172 0 0  174 0 0  176 0 0  178 0 0  180 0 0  182 0 0  184 0 0  186 0 0  188 0 0  190 0 0  192 0 0  194 0 0  196 0 0  198 0 0  200 0 0  0 2 0  2 2 0  4 2 0  6 2 0  8 2 0  10 2 0  12 2 0  14 2 0  16 2 0  18 2 0  20 2 0  22 2 0  24 2 0  26 2 0  28 2 0  30 2 0  32 2 0  34 2 0  36 2 0  38 2 0  40 2 0  42 2 0  44 2 0  46 2 0  48 2 0  50 2 0  52 2 0  54 2 0  56 2 0  58 2 0  60 2 0  62 2 0  64 2 0  66 2 0  68 2 0  70 2 0  72 2 0  74 2 0  76 2 0  78 2 0  80 2 0  82 2 0  84 2 0  86 2 0  88 2 0  90 2 0  92 2 0  94 2 0  96 2 0  98 2 0  100 2 0  102 2 0  104 2 0  106 2 0  108 2 0  110 2 0  112 2 0  114 2 0  116 2 0  118 2 0  120 2 0  122 2 0  124 2 0  126 2 0  128 2 0  130 2 0  132 2 0  134 2 0  136 2 0  138 2 0  140 2 0  142 2 0  144 2 0  146 2 0  148 2 0  150 2 0  152 2 0  154 2 0  156 2 0  158 2 0  160 2 0  162 2 0  164 2 0  166 2 0  168 2 0  170 2 0  172 2 0  174 2 0  176 2 0  178 2 0  180 2 0  182 2 0  184 2 0  186 2 0  188 2 0  190 2 0  192 2 0  194 2 0  196 2 0  198 2 0  200 2 0  0 4 0  2 4 0  4 4 0  6 4 0  8 4 0  10 4 0  12 4 0  14 4 0  16 4 0  18 4 0  20 4 0  22 4 0  24 4 0  26 4 0  28 4 0  30 4 0  32 4 0  34 4 0  36 4 0  38 4 0  40 4 0  42 4 0  44 4 0  46 4 0  48 4 0  50 4 0  52 4 0  54 4 0  56 4 0  58 4 0  60 4 0  62 4 0  64 4 0  66 4 0  68 4 0  70 4 0  72 4 0  74 4 0  76 4 0  78 4 0  80 4 0  82 4 0  84 4 0  86 4 0  88 4 0  90 4 0  92 4 0  94 4 0  96 4 0  98 4 0  100 4 0  102 4 0  104 4 0  106 4 0  108 4 0  110 4 0  112 4 0  114 4 0  116 4 0  118 4 0  120 4 0  122 4 0  124 4 0  126 4 0  128 4 0  130 4 0  132 4 0  134 4 0  136 4 0  138 4 0  140 4 0  142 4 0  144 4 0  146 4 0  148 4 0  150 4 0  152 4 0  154 4 0  156 4 0  158 4 0  160 4 0  162 4 0  164 4 0  166 4 0  168 4 0  170 4 0  172 4 0  174 4 0  176 4 0  178 4 0  180 4 0  182 4 0  184 4 0  186 4 0  188 4 0  190 4 0  192 4 0  194 4 0  196 4 0  198 4 0  200 4 0  0 6 0  2 6 0  4 6 0  6 6 0  8 6 0  10 6 0  12 6 0  14 6 0  16 6 0  18 6 0  20 6 0  22 6 0  24 6 0  26 6 0  28 6 0  30 6 0  32 6 0  34 6 0  36 6 0  38 6 0  40 6 0  42 6 0  44 6 0  46 6 0  48 6 0  50 6 0  52 6 0  54 6 0  56 6 0  58 6 0  60 6 0  62 6 0  64 6 0  66 6 0  68 6 0  70 6 0  72 6 0  74 6 0  76 6 0  78 6 0  80 6 0  82 6 0  84 6 0  86 6 0  88 6 0  90 6 0  92 6 0  94 6 0  96 6 0  98 6 0  100 6 0  102 6 0  104 6 0  106 6 0  108 6 0  110 6 0  112 6 0  114 6 0  116 6 0  118 6 0  120 6 0  122 6 0  124 6 0  126 6 0  128 6 0  130 6 0  132 6 0  134 6 0  136 6 0  138 6 0  140 6 0  142 6 0  144 6 0  146 6 0  148 6 0  150 6 0  152 6 0  154 6 0  156 6 0  158 6 0  160 6 0  162 6 0  164 6 0  166 6 0  168 6 0  170 6 0  172 6 0  174 6 0  176 6 0  178 6 0  180 6 0  182 6 0  184 6 0  186 6 0  188 6 0  190 6 0  192 6 0  194 6 0  196 6 0  198 6 0  200 6 0  0 8 0  2 8 0  4 8 0  6 8 0  8 8 0  10 8 0  12 8 0  14 8 0  16 8 0  18 8 0  20 8 0  22 8 0  24 8 0  26 8 0  28 8 0  30 8 0  32 8 0  34 8 0  36 8 0  38 8 0  40 8 0  42 8 0  44 8 0  46 8 0  48 8 0  50 8 0  52 8 0  54 8 0  56 8 0  58 8 0  60 8 0  62 8 0  64 8 0  66 8 0  68 8 0  70 8 0  72 8 0  74 8 0  76 8 0  78 8 0  80 8 0  82 8 0  84 8 0  86 8 0  88 8 0  90 8 0  92 8 0  94 8 0  96 8 0  98 8 0  100 8 0  102 8 0  104 8 0  106 8 0  108 8 0  110 8 0  112 8 0  114 8 0  116 8 0  118 8 0  120 8 0  122 8 0  124 8 0  126 8 0  128 8 0  130 8 0  132 8 0  134 8 0  136 8 0  138 8 0  140 8 0  142 8 0  144 8 0  146 8 0  148 8 0  150 8 0  152 8 0  154 8 0  156 8 0  158 8 0  160 8 0  162 8 0  164 8 0  166 8 0  168 8 0  170 8 0  172 8 0  174 8 0  176 8 0  178 8 0  180 8 0  182 8 0  184 8 0  186 8 0  188 8 0  190 8 0  192 8 0  194 8 0  196 8 0  198 8 0  200 8 0  0 10 0  2 10 0  4 10 0  6 10 0  8 10 0  10 10 0  12 10 0  14 10 0  16 10 0  18 10 0  20 10 0  22 10 0  24 10 0  26 10 0  28 10 0  30 10 0  32 10 0  34 10 0  36 10 0  38 10 0  40 10 0  42 10 0  44 10 0  46 10 0  48 10 0  50 10 0  52 10 0  54 10 0  56 10 0  58 10 0  60 10 0  62 10 0  64 10 0  66 10 0  68 10 0  70 10 0  72 10 0  74 10 0  76 10 0  78 10 0  80 10 0  82 10 0  84 10 0  86 10 0  88 10 0  90 10 0  92 10 0  94 10 0  96 10 0  98 10 0  100 10 0  102 10 0  104 10 0  106 10 0  108 10 0  110 10 0  112 10 0  114 10 0  116 10 0  118 10 0  120 10 0  122 10 0  124 10 0  126 10 0  128 10 0  130 10 0  132 10 0  134 10 0  136 10 0  138 10 0  140 10 0  142 10 0  144 10 0  146 10 0  148 10 0  150 10 0  152 10 0  154 10 0  156 10 0  158 10 0  160 10 0  162 10 0  164 10 0  166 10 0  168 10 0  170 10 0  172 10 0  174 10 0  176 10 0  178 10 0  180 10 0  182 10 0  184 10 0  186 10 0  188 10 0  190 10 0  192 10 0  194 10 0  196 10 0  198 10 0  200 10 0  0 12 0  2 12 0  4 12 0  6 12 0  8 12 0  10 12 0  12 12 0  14 12 0  16 12 0  18 12 0  20 12 0  22 12 0  24 12 0  26 12 0  28 12 0  30 12 0  32 12 0  34 12 0  36 12 0  38 12 0  40 12 0  42 12 0  44 12 0  46 12 0  48 12 0  50 12 0  52 12 0  54 12 0  56 12 0  58 12 0  60 12 0  62 12 0  64 12 0  66 12 0  68 12 0  70 12 0  72 12 0  74 12 0  76 12 0  78 12 0  80 12 0  82 12 0  84 12 0  86 12 0  88 12 0  90 12 0  92 12 0  94 12 0  96 12 0  98 12 0  100 12 0  102 12 0  104 12 0  106 12 0  108 12 0  110 12 0  112 12 0  114 12 0  116 12 0  118 12 0  120 12 0  122 12 0  124 12 0  126 12 0  128 12 0  130 12 0  132 12 0  134 12 0  136 12 0  138 12 0  140 12 0  142 12 0  144 12 0  146 12 0  148 12 0  150 12 0  152 12 0  154 12 0  156 12 0  158 12 0  160 12 0  162 12 0  164 12 0  166 12 0  168 12 0  170 12 0  172 12 0  174 12 0  176 12 0  178 12 0  180 12 0  182 12 0  184 12 0  186 12 0  188 12 0  190 12 0  192 12 0  194 12 0  196 12 0  198 12 0  200 12 0  0 14 0  2 14 0  4 14 0  6 14 0  8 14 0  10 14 0  12 14 0  14 14 0  16 14 0  18 14 0  20 14 0  22 14 0  24 14 0  26 14 0  28 14 0  30 14 0  32 14 0  34 14 0  36 14 0  38 14 0  40 14 0  42 14 0  44 14 0  46 14 0  48 14 0  50 14 0  52 14 0  54 14 0  56 14 0  58 14 0  60 14 0  62 14 0  64 14 0  66 14 0  68 14 0  70 14 0  72 14 0  74 14 0  76 14 0  78 14 0  80 14 0  82 14 0  84 14 0  86 14 0  88 14 0  90 14 0  92 14 0  94 14 0  96 14 0  98 14 0  100 14 0  102 14 0  104 14 0  106 14 0  108 14 0  110 14 0  112 14 0  114 14 0  116 14 0  118 14 0  120 14 0  122 14 0  124 14 0  126 14 0  128 14 0  130 14 0  132 14 0  134 14 0  136 14 0  138 14 0  140 14 0  142 14 0  144 14 0  146 14 0  148 14 0  150 14 0  152 14 0  154 14 0  156 14 0  158 14 0  160 14 0  162 14 0  164 14 0  166 14 0  168 14 0  170 14 0  172 14 0  174 14 0  176 14 0  178 14 0  180 14 0  182 14 0  184 14 0  186 14 0  188 14 0  190 14 0  192 14 0  194 14 0  196 14 0  198 14 0  200 14 0  0 16 0  2 16 0  4 16 0  6 16 0  8 16 0  10 16 0  12 16 0  14 16 0  16 16 0  18 16 0  20 16 0  22 16 0  24 16 0  26 16 0  28 16 0  30 16 0  32 16 0  34 16 0  36 16 0  38 16 0  40 16 0  42 16 0  44 16 0  46 16 0  48 16 0  50 16 0  52 16 0  54 16 0  56 16 0  58 16 0  60 16 0  62 16 0  64 16 0  66 16 0  68 16 0  70 16 0  72 16 0  74 16 0  76 16 0  78 16 0  80 16 0  82 16 0  84 16 0  86 16 0  88 16 0  90 16 0  92 16 0  94 16 0  96 16 0  98 16 0  100 16 0  102 16 0  104 16 0  106 16 0  108 16 0  110 16 0  112 16 0  114 16 0  116 16 0  118 16 0  120 16 0  122 16 0  124 16 0  126 16 0  128 16 0  130 16 0  132 16 0  134 16 0  136 16 0  138 16 0  140 16 0  142 16 0  144 16 0  146 16 0  148 16 0  150 16 0  152 16 0  154 16 0  156 16 0  158 16 0  160 16 0  162 16 0  164 16 0  166 16 0  168 16 0  170 16 0  172 16 0  174 16 0  176 16 0  178 16 0  180 16 0  182 16 0  184 16 0  186 16 0  188 16 0  190 16 0  192 16 0  194 16 0  196 16 0  198 16 0  200 16 0  0 18 0  2 18 0  4 18 0  6 18 0  8 18 0  10 18 0  12 18 0  14 18 0  16 18 0  18 18 0  20 18 0  22 18 0  24 18 0  26 18 0  28 18 0  30 18 0  32 18 0  34 18 0  36 18 0  38 18 0  40 18 0  42 18 0  44 18 0  46 18 0  48 18 0  50 18 0  52 18 0  54 18 0  56 18 0  58 18 0  60 18 0  62 18 0  64 18 0  66 18 0  68 18 0  70 18 0  72 18 0  74 18 0  76 18 0  78 18 0  80 18 0  82 18 0  84 18 0  86 18 0  88 18 0  90 18 0  92 18 0  94 18 0  96 18 0  98 18 0  100 18 0  102 18 0  104 18 0  106 18 0  108 18 0  110 18 0  112 18 0  114 18 0  116 18 0  118 18 0  120 18 0  122 18 0  124 18 0  126 18 0  128 18 0  130 18 0  132 18 0  134 18 0  136 18 0  138 18 0  140 18 0  142 18 0  144 18 0  146 18 0  148 18 0  150 18 0  152 18 0  154 18 0  156 18 0  158 18 0  160 18 0  162 18 0  164 18 0  166 18 0  168 18 0  170 18 0  172 18 0  174 18 0  176 18 0  178 18 0  180 18 0  182 18 0  184 18 0  186 18 0  188 18 0  190 18 0  192 18 0  194 18 0  196 18 0  198 18 0  200 18 0  0 20 0  2 20 0  4 20 0  6 20 0  8 20 0  10 20 0  12 20 0  14 20 0  16 20 0  18 20 0  20 20 0  22 20 0  24 20 0  26 20 0  28 20 0  30 20 0  32 20 0  34 20 0  36 20 0  38 20 0  40 20 0  42 20 0  44 20 0  46 20 0  48 20 0  50 20 0  52 20 0  54 20 0  56 20 0  58 20 0  60 20 0  62 20 0  64 20 0  66 20 0  68 20 0  70 20 0  72 20 0  74 20 0  76 20 0  78 20 0  80 20 0  82 20 0  84 20 0  86 20 0  88 20 0  90 20 0  92 20 0  94 20 0  96 20 0  98 20 0  100 20 0  102 20 0  104 20 0  106 20 0  108 20 0  110 20 0  112 20 0  114 20 0  116 20 0  118 20 0  120 20 0  122 20 0  124 20 0  126 20 0  128 20 0  130 20 0  132 20 0  134 20 0  136 20 0  138 20 0  140 20 0  142 20 0  144 20 0  146 20 0  148 20 0  150 20 0  152 20 0  154 20 0  156 20 0
[...]
<PointData  Scalars="f_271-3"> 
<DataArray  type="Float64"  Name="f_271-3"  format="ascii">4.9837689263973264e-07  4.7657032805095836e-07  4.1696276357212598e-07  3.3472848463287405e-07  2.4890654280295285e-07  1.7655182925254440e-07  1.2896727987649471e-07  1.1066029160086337e-07  1.2013587644985095e-07  1.5132256538620048e-07  1.9503966654225674e-07  2.4057683558227550e-07  2.7759506265963430e-07  2.9819842340738887e-07  2.9857340956863417e-07  2.7950412515253249e-07  2.4552091362277983e-07  2.0311840148417748e-07  1.5885180487096277e-07  1.1796433848198043e-07  8.3768115387432810e-08  5.7665770591837062e-08  3.9586291567366496e-08  2.8619025254813823e-08  2.3657152338672611e-08  2.3888551073481616e-08  2.9021861427322281e-08  3.9210195137948233e-08  5.4709117735195380e-08  7.5359803065566195e-08  1.0003163034381343e-07  1.2621548778999048e-07  1.5002073543562659e-07  1.6680855646116653e-07  1.7247209802219631e-07  1.6495921743567921e-07  1.4529259818399501e-07  1.1743698507265468e-07  8.6962459766705470e-08  5.9161125851876645e-08  3.7559248006012702e-08  2.3430467683998380e-08  1.6242904075541275e-08  1.4482395480044464e-08  1.6309106488910856e-08  1.9882687632350216e-08  2.3516291542572633e-08  2.5851374217132162e-08  2.6080800329707561e-08  2.4107277728475163e-08  2.0517883787984621e-08  1.6349441661502713e-08  1.2719453042582378e-08  1.0425340048808877e-08  9.5176719437213667e-09  8.5899265399304823e-09  4.7843967147260730e-09  8.4559211516073141e-10  9.7181145137242436e-11  1.4887924241815990e-11  1.8518984935270849e-12  3.5757349869598836e-12  2.7835790040212678e-11  2.6267339780938356e-11  3.2147930278357117e-12  1.3292239112069441e-13  3.6584417116862764e-14  5.6553929678163535e-13  2.2104456242173015e-11  3.1315563927707635e-10  5.8261404567171363e-09  6.3385275621897003e-08  1.7921094270905888e-07  2.3685281141153817e-07  2.4240686481138167e-07  2.2189231469628619e-07  1.8814411370967719e-07  1.4950800298495950e-07  1.1206812039866040e-07  7.9728844509082407e-08  5.4421125687138629e-08  3.6935758660846717e-08  3.0080855537713138e-08  5.6629042202955603e-08  2.7800448179844261e-07  1.8069454655516294e-06  1.2346860306832038e-05  8.5801112966902963e-05  6.0464681606301591e-04  4.3277788030036532e-03  3.1446865160548752e-02  2.1027511457240725e-01  7.0059745922798233e-01  9.3747568681311233e-01  9.8572475407758786e-01  9.9627033470510429e-01  9.9886618130153593e-01  9.9957487041852311e-01  9.9979338975863963e-01  9.9986642473627096e-01  9.9988452425343777e-01  4.8006794920366331e-07  4.5927175919398366e-07  4.0237023697701045e-07  3.2371698983939231e-07  2.4139262366549251e-07  1.7169541820048090e-07  1.2553920835700113e-07  1.0739711225279636e-07  1.1599419079024452e-07  1.4562910844577172e-07  1.8756174574186253e-07  2.3152560143032412e-07  2.6755794121041531e-07  2.8799990597119025e-07  2.8908709674744337e-07  2.7146633781214544e-07  2.3940208629677619e-07  1.9908289388258966e-07  1.5679750578768514e-07  1.1760774366928153e-07  8.4738558371730573e-08  5.9584339228374070e-08  4.2117635434043128e-08  3.1493007553645690e-08  2.6663448284781459e-08  2.6852111048337944e-08  3.1770166385808095e-08  4.1543948765990305e-08  5.6387097671901026e-08  7.6107014456100659e-08  9.9577236532727186e-08  1.2436049592089851e-07  1.4672208532227129e-07  1.6224845608291441e-07  1.6707138037626077e-07  1.5930725491809261e-07  1.4000614246295841e-07  1.1300318198819832e-07  8.3634132779748761e-08  5.6943131978172383e-08  3.6274320301621935e-08  2.2816652816221647e-08  1.6033794199093986e-08  1.4449227827989998e-08  1.6273973243673477e-08  1.9722511474011440e-08  2.3167922396121629e-08  2.5314681366042254e-08  2.5411573114682718e-08  2.3396299987731138e-08  1.9860694541447121e-08  1.5816841175472028e-08  1.2339393513812373e-08  1.0185530576761589e-08  9.4092824543061103e-09  8.7697706072691125e-09  5.5227178442545717e-09  1.2411033893301830e-09  1.5687835404827891e-10  2.8993109157470609e-11  7.3664658552845821e-12  1.8737432306619816e-11  1.3747267959626735e-10  1.0532037456141657e-10  1.1389577038506592e-11  6.9560310098730010e-13  3.4310443322937021e-13  2.5495640203509705e-12  4.0398938825900672e-11  4.6522551757903183e-10  7.9001404510360261e-09  7.1651758554309221e-08  1.7917539619796277e-07  2.2990504705103872e-07  2.3433003295760708e-07  2.1470278240144871e-07  1.8256723186724817e-07  1.4575185588938020e-07  1.1004078682148547e-07  7.9170048723131643e-08  5.5000915521909740e-08  3.8302830148914819e-08  3.1743585359943633e-08  5.6798457676516242e-08  2.6480587439187626e-07  1.6912596827750153e-06  1.1436919726026877e-05  7.8566791189606160e-05  5.4513014863655132e-04  3.8146401914707305e-03  2.6624360731803399e-02  1.7278570651382114e-01  6.3278130757912432e-01  9.1701608687301672e-01  9.7975865793280226e-01  9.9419039931570374e-01  9.9798779283565375e-01  9.9913448387860082e-01  9.9952651758271449e-01  9.9967025733649417e-01  9.9970779053818237e-01  4.2910470182959048e-07  4.1107662746151029e-07  3.6160605474334087e-07  2.9283306576391076e-07  2.2023139893409562e-07  1.5801001814511817e-07  1.1597191648351233e-07  9.8444890478603728e-08  1.0471825264597878e-07  1.3008852189201813e-07  1.6703034092657204e-07  2.0652122262906708e-07  2.3967029212361448e-07  2.5951271321413598e-07  2.6245757280224408e-07  2.4880178320092454e-07  2.2209063723900878e-07  1.8766614961236386e-07  1.5106520542964675e-07  1.1682265513716086e-07  8.7891904427292242e-08  6.5613207730312869e-08  5.0050730808088016e-08  4.0515906015338900e-08  3.6111762652450053e-08  3.6153832340550483e-08  4.0366094714396127e-08  4.8816849639690215e-08  6.1627986686829824e-08  7.8543035124960427e-08  9.8478165698370241e-08  1.1922250003128733e-07  1.3749072239908134e-07  1.4949573198075754e-07  1.5201714418566443e-07  1.4361506448413507e-07  1.2539159445920279e-07  1.0080607075564563e-07  7.4537502651037169e-08  5.0941710995512649e-08  3.2858871336861885e-08  2.1243636530409455e-08  1.5548277446923290e-08  1.4404607280787059e-08  1.6172911388278037e-08  1.9230681535828516e-08  2.2127024386149243e-08  2.3745997956163480e-08  2.3489385615307308e-08  2.1383945403307095e-08  1.8024012232544972e-08  1.4343580721179479e-08  1.1293026707930807e-08  9.5159777526195645e-09  9.0617481652415922e-09  9.0428774231126928e-09  7.3259628559698951e-09  3.0928446180177950e-09  6.5926893715392832e-10  1.5927353476421110e-10  9.6695160997625854e-11  3.3583538543927718e-10  1.0896593713320966e-09  7.3682021782484430e-10  9.5584882770954712e-11  1.2754365274360585e-11  8.6310151022891397e-12  2.4636461149769206e-11  1.6685908260858015e-10  1.3931129458217747e-09  1.7565624942345445e-08  9.2123804268841271e-08  1.7415298086402564e-07  2.0949486841111338e-07  2.1160478708442469e-07  1.9454851673024311e-07  1.6692514370109320e-07  1.3523399140512781e-07  1.0445064651327711e-07  7.7843557772122002e-08  5.7065828703270003e-08  4.2803528959475644e-08  3.7316937836749232e-08  5.8587824343172611e-08  2.3131410883530156e-07  1.3901436688365933e-06  9.0988157907170159e-06  6.0394539930475436e-05  4.0052737875436757e-04  2.6262930784675836e-03  1.6643382709512204e-02  9.7009061143844777e-02  4.2233966659009275e-01  8.2279322210388472e-01  9.5186316492928924e-01  9.8367177200527489e-01  9.9330730906890174e-01  9.9663438958578043e-01  9.9794284482791140e-01  9.9847241017043009e-01  9.9861740269255295e-01  3.5602118557427806e-07  3.4184130105193710e-07  3.0274890117250521e-07  2.4790483750324172e-07  1.8921522891553435e-07  1.3794351008024330e-07  1.0222573574176867e-07  8.6041688038414417e-08  8.9350523103875588e-08  1.0878217092873182e-07  1.3851371356945362e-07  1.7132522869799937e-07  1.9993000004722285e-07  2.1845782524200542e-07  2.2367821477631793e-07  2.1548783618778915e-07  1.9647054292648852e-07  1.7077812249439581e-07  1.4284476075302466e-07  1.1638588758520538e-07  9.3876511839542000e-08  7.6478783934160900e-08  6.4289062709852839e-08  5.6758841454751149e-08  5.3148685850594076e-08  5.2886345921258281e-08  5.5734962091411283e-08  6.1737395187811460e-08  7.0968659726350034e-08  8.3179065245152488e-08  9.7443020247198242e-08  1.1195326387952277e-07  1.2411230197552480e-07  1.3102715332096513e-07  1.3035684035708313e-07  1.2122260158151282e-07  1.0472942444549207e-07  8.3751379906922205e-08  6.2008973820508406e-08  4.2873099282889269e-08  2.8468012936755850e-08  1.9416876027716878e-08  1.5160937437909124e-08  1.4500904806929546e-08  1.6036034857668233e-08  1.8408458991213518e-08  2.0445333960081596e-08  2.1298252458506396e-08  2.0578881814854838e-08  1.8416808455941580e-08  1.5379561323444175e-08  1.2264160611387375e-08  9.8305407976430197e-09  8.5585687490086767e-09  8.4698538210074217e-09  8.9928547883258924e-09  8.8801161880118382e-09  6.7339008776627642e-09  3.4940981414830709e-09  1.7651190694657883e-09  1.6640512547960220e-09  2.9403676288622671e-09  4.4407496788546169e-09  3.5045827125101248e-09  1.1182983385579256e-09  2.3506697506379348e-10  1.2477425112784079e-10  2.4202309921448020e-10  1.0391324330468193e-09  7.3694529365169189e-09  4.1802937054250882e-08  1.0769379692199972e-07  1.5704236193949077e-07  1.7800539049153549e-07  1.7839517270670192e-07  1.6524302598380262e-07  1.4415509567249756e-07  1.1998810302631486e-07  9.6635188451943732e-08  7.6703077800239337e-08  6.1507734300688648e-08  5.1541656321570972e-08  4.8416146347093014e-08  6.5392251293440355e-08  1.9271458155421493e-07  1.0135256271793607e-06  6.2393680844948957e-06  3.9133573235313891e-05  2.4174070218279062e-04  1.4413515000701409e-03  8.0774356741479484e-03  4.0943107470990642e-02  1.8218583249099030e-01  5.4888045011215625e-01  8.4144003087970609e-01  9.4095832570133053e-01  9.7275009062166307e-01  9.8502049787493928e-01  9.9025416957752133e-01  9.9246743259081460e-01  9.9308169960884340e-01  2.7449323429940364e-07  2.6441477276768578e-07  2.3646094194213827e-07  1.9677941943728269e-07  1.5357584965292522e-07  1.1492139621942438e-07  8.6982967682638561e-08  7.3124914548127984e-08  7.3814047082076791e-08  8.6988080298232833e-08  1.0863667971613428e-07  1.3356434976217889e-07  1.5637794037325999e-07  1.7260033680344767e-07  1.7960942075957025e-07  1.7705400057849263e-07  1.6659341526273944e-07  1.5111787350471097e-07  1.3380596124997606e-07  1.1735209947754655e-07  1.0353021385093680e-07  9.3100081889002870e-08  8.5981199454504752e-08  8.1591869666586641e-08  7.9237257426295432e-08  7.8425118355582149e-08  7.9012340210944750e-08  8.1145644372459706e-08  8.5032829960986731e-08  9.0634734628269091e-08  9.7389827704091209e-08  1.0408302404433476e-07  1.0895456374428896e-07  1.1009363702198530e-07  1.0604800583753419e-07  9.6430452383633791e-08  8.2219850275374596e-08  6.5548663762610863e-08  4.9028231225546628e-08  3.4924583331931148e-08  2.4570402075754842e-08  1.8229250363669213e-08  1.5347463959807000e-08  1.4947550144554485e-08  1.5945540468638321e-08  1.7333651154323702e-08  1.8289741392471608e-08  1.8274966318868239e-08  1.7113581981898207e-08  1.5005301485936288e-08  1.2437625208797000e-08  1.0016831484943901e-08  8.2758055935615868e-09  7.5188757544559908e-09  7.7343365465259727e-09  8.5718042489771087e-09  9.3854303680980286e-09  9.4391949084072308e-09  8.4873163963338099e-09  7.4907798908634593e-09  7.6700461794176983e-09  8.9597278426316196e-09  1.0059440581055259e-08  9.5632304188179453e-09  6.7349475316948308e-09  3.5944106916453712e-09  2.4429831279986066e-09  3.3223781202585450e-09  8.6252403742384988e-09  2.7518154469651081e-08  6.4647306267329919e-08  1.0307632946730497e-07  1.2883234896257135e-07  1.4049112066467631e-07  1.4045551267166428e-07  1.3187998864251501e-07  1.1819000972894496e-07  1.0275718595189243e-07  8.8406192115310247e-08  7.7040749749473543e-08  6.9545155666336161e-08  6.6056756146364946e-08  6.7304288704660808e-08  8.1624907947475277e-08  1.6617505523492057e-07  6.7457646795823603e-07  3.7220155603817597e-06  2.1551223422951036e-05  1.2166124884645366e-04  6.5018086571830866e-04  3.2094922304947027e-03  1.4409860383751196e-02  5.6808696376137724e-02  1.9628308713745071e-01  4.8638577987488513e-01  7.4892993733160595e-01  8.7488495899034924e-01  9.2821222252048297e-01  9.5154269991210871e-01  9.6134863323339859e-01  9.6404745233871225e-01  1.9739901598857348e-07  1.9096901675634989e-07  1.7302113349975887e-07  1.4723247096680038e-07  1.1866396638689118e-07  9.2506346247027437e-08  7.2947614632919405e-08  6.2486645890573754e-08  6.1746201737565351e-08  6.9634277267786382e-08  8.3701112058426677e-08  1.0064782103836910e-07  1.1698972970136242e-07  1.2979926137376796e-07  1.3733267879907558e-07  1.3931638086890154e-07  1.3678881363078078e-07  1.3158839893959609e-07  1.2570976518454182e-07  1.2074908638082333e-07  1.1756776318603926e-07  1.1620979102467888e-07  1.1605285447656747e-07  1.1613608258484676e-07  1.1556226473562247e-07  1.1383456664582812e-07  1.1100058768029047e-07  1.0755601379928305e-07  1.0416576492915405e-07  1.0132897521181396e-07  9.9116924163502560e-08  9.7072646912059082e-08  9.4312125148388163e-08  8.9816142062378339e-08  8.2834962156401333e-08  7.3254699199747425e-08  6.1748307783574662e-08  4.9609096828386167e-08  3.8323789582523631e-08  2.9087217638191089e-08  2.2486307650855953e-08  1.8465787813088925e-08  1.6518015063516527e-08  1.5939720642928966e-08  1.6026736058117614e-08  1.6177858622089434e-08  1.5949439926752575e-08  1.5098914301470511e-08  1.3613734239387578e-08  1.1697694902176901e-08  9.7000427372948371e-09  8.0053374769393804e-09  6.9236111311291811e-09  6.6159505705805178e-09  7.0681077822105342e-09  8.1046090802650769e-09  9.4358004108873233e-09  1.0751255162646611e-08  1.1880564585762030e-08  1.2941085016029614e-08  1.4208431015810911e-08  1.5664988055619255e-08  1.6915301643325364e-08  1.7437149366436578e-08  1.6728764009660687e-08  1.5023736597193110e-08  1.4311204570942178e-08  1.7276248637090539e-08  2.6685307969531976e-08  4.3775778951699965e-08  6.4646463014199337e-08  8.3382258081856372e-08  9.6557662789242829e-08  1.0312248489759210e-07  1.0358435513709046e-07  9.9463261487611128e-08  9.2914448259629539e-08  8.6271913548453789e-08  8.1561871843897147e-08  8.0117187890894277e-08  8.2370028532656720e-08  8.7918741607385868e-08  9.6349641334726980e-08  1.1149822306513876e-07  1.6448821387899265e-07  4.4165118391624935e-07  1.9791046995916813e-06  1.0240243461361204e-05  5.2157860751209297e-05  2.4928015340735697e-04  1.0959648502825699e-03  4.3431207780450518e-03  1.5473551735571238e-02  4.7979061649796262e-02  1.3072527334907172e-01  2.9101070185364158e-01  4.9496828967523221e-01  6.5780530412150873e-01  7.4870925069612559e-01  7.9017599900272983e-01  8.0203083033423006e-01  1.3395196214631626e-07  1.3028652322769071e-07  1.2002865746733933e-07  1.0522362534506469e-07  8.8738027109913618e-08  7.3572427107728700e-08  6.2190093934226475e-08  5.6074558294676253e-08  5.5592459486554945e-08  6.0099423889973812e-08  6.8192610633842929e-08  7.8057495316480538e-08  8.7883755988096139e-08  9.6290850093510846e-08  1.0264928618633442e-07  1.0718029134527232e-07  1.1078992744686516e-07  1.1469876744345635e-07  1.1999543302550786e-07  1.2724267365236254e-07  1.3622763506072680e-07  1.4591728498486857e-07  1.5465905718408594e-07  1.6061628021804502e-07  1.6232616945306283e-07  1.5916868371526138e-07  1.5153631975971770e-07  1.4063388871623976e-07  1.2802560638552931e-07  1.1514903438485177e-07  1.0297936007741572e-07  9.1916361585002948e-08  8.1871771963076643e-08  7.2489997842729926e-08  6.3417494545620597e-08  5.4524886893762766e-08  4.5994766714578561e-08  3.8239868389456804e-08  3.1700213230949586e-08  2.6633335370249502e-08  2.3009309282922339e-08  2.0549907703250966e-08  1.8861442844545295e-08  1.7569357011559407e-08  1.6391667086377811e-08  1.5149977840027597e-08  1.3754901599111542e-08  1.2196479396308246e-08  1.0541886718657651e-08  8.9248192745596078e-09  7.5162621054463243e-09  6.4842222201857820e-09  5.9610869626261089e-09  6.0310935244725690e-09  6.7337075198129265e-09  8.0680185968626834e-09  9.9886488300638908e-09  1.2399263312075606e-08  1.5156360206861429e-08  1.8077903873163229e-08  2.0932348487241935e-08  2.3423951361809961e-08  2.5237413190474180e-08  2.6146926852878234e-08  2.6151338537160762e-08  2.5678415101758608e-08  2.5812416356330234e-08  2.8083190175257812e-08  3.3533236361319310e-08  4.1835323326264079e-08  5.1409194538001337e-08  6.0332445923494731e-08  6.7100325765364955e-08  7.1003938694663703e-08  7.2228083148713032e-08  7.1787798577330354e-08  7.1300953072056298e-08  7.2625400250030890e-08  7.7431674110187019e-08  8.6776938815536236e-08  1.0073629608935642e-07  1.1821989947022797e-07  1.3737020792132266e-07  1.5803048053915260e-07  1.9351658930890552e-07  3.2869383883695671e-07  1.0038750728162982e-06  4.3219167218777820e-06  1.9544322150788326e-05  8.3774214726394463e-05  3.2937458642579210e-04  1.1749772987010142e-03  3.7383806511482967e-03  1.0604632310516240e-02  2.6457743376259269e-02  5.8442543670955208e-02  1.1394684635482367e-01  1.8652961788116559e-01  2.5430993860941892e-01  2.9964135030449024e-01  3.1532559626682644e-01  8.8654830392597323e-08  8.6729671251457950e-08  8.1428795446769664e-08  7.4035779457464119e-08  6.6265568740269276e-08  5.9775489078531791e-08  5.5737964649772507e-08  5.4613412332395455e-08  5.6159554864841674e-08  5.9619891081722111e-08  6.4005542706120576e-08  6.8404611984200312e-08  7.2268496725925627e-08  7.5614682044029584e-08  7.9079948165291492e-08  8.3790061860183565e-08  9.1072211949414833e-08  1.0208236933902657e-07  1.1742532825123231e-07  1.3682789964847513e-07  1.5892625671389668e-07  1.8126312168161235e-07  2.0061384694510189e-07  2.1368485151763527e-07  2.1802381484880640e-07  2.1277231902981901e-07  1.9888734765466678e-07  1.7872694896108549e-07  1.5524596319311460e-07  1.3120506330311342e-07  1.0867932326296351e-07  8.8917686818539674e-08  7.2444873575788633e-08  5.9268879979429402e-08  4.9097858590993087e-08  4.1511401543201765e-08  3.6058383411104355e-08  3.2282120966565346e-08  2.9706337487506672e-08  2.7832649792551774e-08  2.6183979076318520e-08  2.4385961954604052e-08  2.2241547296808305e-08  1.9751738019829815e-08  1.7068658108937035e-08  1.4407877807922764e-08  1.1964941763122893e-08  9.8686726531996815e-09  8.1765109567935167e-09  6.8961220743488804e-09  6.0142523206543056e-09  5.5244065929858295e-09  5.4542077530411763e-09  5.8892725341625608e-09  6.9781665494115998e-09  8.8998090298959127e-09  1.1789804477428776e-08  1.5646635692940635e-08  2.0255650901127595e-08  2.5168467782803538e-08  2.9760147362784791e-08  3.3363226293401266e-08  3.5449141977259965e-08  3.5802210965594087e-08  3.4630083382078758e-08  3.2577269409816587e-08  3.0611214802883013e-08  2.9739895828147878e-08  3.0613267628545351e-08  3.3241528210437953e-08  3.7026131775180349e-08  4.1054955173591873e-08  4.4499126672339834e-08  4.6971760088878540e-08  4.8760995269765486e-08  5.0885066282759989e-08  5.4960720111667479e-08  6.2915089009622635e-08  7.6573546689851454e-08  9.7131499528228680e-08  1.2454010243347652e-07  1.5697552261322208e-07  1.9082951215158565e-07  2.2218996575983364e-07  2.5290723407552054e-07  3.1483213669473096e-07  5.7196330656794520e-07  1.7368536442702959e-06  6.6227925406845957e-06  2.5264164935920323e-05  8.9666766989801212e-05  2.8882246267433178e-04  8.3814134239801352e-04  2.1740117130218473e-03  5.0394426046047307e-03  1.0435496433931483e-02  1.9049609310094282e-02  3.0416037693120752e-02  4.2357671439865373e-02  5.1481349757415397e-02  5.4886754677235174e-02  6.1791109750806880e-08  6.0660402796106763e-08  5.7755872239645430e-08  5.4324770384005951e-08  5.1843717640337893e-08  5.1438283796816839e-08  5.3495815946892780e-08  5.7580873071334733e-08  6.2625064673911272e-08  6.7289109029508933e-08  7.0387979570930936e-08  7.1290305942734442e-08  7.0209599266074733e-08  6.8300737246699017e-08  6.7504576049822152e-08  7.0165016192010840e-08  7.8525267895695757e-08  9.4223895460441922e-08  1.1785409028357013e-07  1.4859633144033076e-07  1.8396403293154661e-07  2.19814837566