<?xml version="1.0"?>
<VTKFile type="UnstructuredGrid"  version="0.1"  >
<UnstructuredGrid>
<Piece  NumberOfPoints="20201" NumberOfCells="40000">
<Points>
<DataArray  type="Float64"  NumberOfComponents="3"  format="ascii">0 0 0  2 0 0  4 0 0  6 0 0  8 0 0  10 0 0  12 0 0  14 0 0  16 0 0  18 0 0  20 0 0  22 0 0  24 0 0  26 0 0  28 0 0  30 0 0  32 0 0  34 0 0  36 0 0  38 0 0  40 0 0  42 0 0  44 0 0  46 0 0  48 0 0  50 0 0  52 0 0  54 0 0  56 0 0  58 0 0  60 0 0  62 0 0  64 0 0  66 0 0  68 0 0  70 0 0  72 0 0  74 0 0  76 0 0  78 0 0  80 0 0  82 0 0  84 0 0  86 0 0  88 0 0  90 0 0  92 0 0  94 0 0  96 0 0  98 0 0  100 0 0  102 0 0  104 0 0  106 0 0  108 0 0  110 0 0  112 0 0  114 0 0  116 0 0  118 0 0  120 0 0  122 0 0  124 0 0  126 0 0  128 0 0  130 0 0  132 0 0  134 0 0  136 0 0  138 0 0  140 0 0  142 0 0  144 0 0  146 0 0  148 0 0  150 0 0  152 0 0  154 0 0  156 0 0  158 0 0  160 0 0  162 0 0  164 0 0  166 0 0  168 0 0  170 0 0  172 0 0  174 0 0  176 0 0  178 0 0  180 0 0  182 0 0  184 0 0  186 0 0  188 0 0  190 0 0  192 0 0  194 0 0  196 0 0  198 0 0  200 0 0  0 2 0  2 2 0  4 2 0  6 2 0  8 2 0  10 2 0  12 2 0  14 2 0  16 2 0  18 2 0  20 2 0  22 2 0  24 2 0  26 2 0  28 2 0  30 2 0  32 2 0  34 2 0  36 2 0  38 2 0  40 2 0  42 2 0  44 2 0  46 2 0  48 2 0  50 2 0  52 2 0  54 2 0  56 2 0  58 2 0  60 2 0  62 2 0  64 2 0  66 2 0  68 2 0  70 2 0  72 2 0  74 2 0  76 2 0  78 2 0  80 2 0  82 2 0  84 2 0  86 2 0  88 2 0  90 2 0  92 2 0  94 2 0  96 2 0  98 2 0  100 2 0  102 2 0  104 2 0  106 2 0  108 2 0  110 2 0  112 2 0  114 2 0  116 2 0  118 2 0  120 2 0  122 2 0  124 2 0  126 2 0  128 2 0  130 2 0  132 2 0  134 2 0  136 2 0  138 2 0  140 2 0  142 2 0  144 2 0  146 2 0  148 2 0  150 2 0  152 2 0  154 2 0  156 2 0  158 2 0  160 2 0  162 2 0  164 2 0  166 2 0  168 2 0  170 2 0  172 2 0  174 2 0  176 2 0  178 2 0  180 2 0  182 2 0  184 2 0  186 2 0  188 2 0  190 2 0  192 2 0  194 2 0  196 2 0  198 2 0  200 2 0  0 4 0  2 4 0  4 4 0  6 4 0  8 4 0  10 4 0  12 4 0  14 4 0  16 4 0  18 4 0  20 4 0  22 4 0  24 4 0  26 4 0  28 4 0  30 4 0  32 4 0  34 4 0  36 4 0  38 4 0  40 4 0  42 4 0  44 4 0  46 4 0  48 4 0  50 4 0  52 4 0  54 4 0  56 4 0  58 4 0  60 4 0  62 4 0  64 4 0  66 4 0  68 4 0  70 4 0  72 4 0  74 4 0  76 4 0  78 4 0  80 4 0  82 4 0  84 4 0  86 4 0  88 4 0  90 4 0  92 4 0  94 4 0  96 4 0  98 4 0  100 4 0  102 4 0  104 4 0  106 4 0  108 4 0  110 4 0  112 4 0  114 4 0  116 4 0  118 4 0  120 4 0  122 4 0  124 4 0  126 4 0  128 4 0  130 4 0  132 4 0  134 4 0  136 4 0  138 4 0  140 4 0  142 4 0  144 4 0  146 4 0  148 4 0  150 4 0  152 4 0  154 4 0  156 4 0  158 4 0  160 4 0  162 4 0  164 4 0  166 4 0  168 4 0  170 4 0  172 4 0  174 4 0  176 4 0  178 4 0  180 4 0  182 4 0  184 4 0  186 4 0  188 4 0  190 4 0  192 4 0  194 4 0  196 4 0  198 4 0  200 4 0  0 6 0  2 6 0  4 6 0  6 6 0  8 6 0  10 6 0  12 6 0  14 6 0  16 6 0  18 6 0  20 6 0  22 6 0  24 6 0  26 6 0  28 6 0  30 6 0  32 6 0  34 6 0  36 6 0  38 6 0  40 6 0  42 6 0  44 6 0  46 6 0  48 6 0  50 6 0  52 6 0  54 6 0  56 6 0  58 6 0  60 6 0  62 6 0  64 6 0  66 6 0  68 6 0  70 6 0  72 6 0  74 6 0  76 6 0  78 6 0  80 6 0  82 6 0  84 6 0  86 6 0  88 6 0  90 6 0  92 6 0  94 6 0  96 6 0  98 6 0  100 6 0  102 6 0  104 6 0  106 6 0  108 6 0  110 6 0  112 6 0  114 6 0  116 6 0  118 6 0  120 6 0  122 6 0  124 6 0  126 6 0  128 6 0  130 6 0  132 6 0  134 6 0  136 6 0  138 6 0  140 6 0  142 6 0  144 6 0  146 6 0  148 6 0  150 6 0  152 6 0  154 6 0  156 6 0  158 6 0  160 6 0  162 6 0  164 6 0  166 6 0  168 6 0  170 6 0  172 6 0  174 6 0  176 6 0  178 6 0  180 6 0  182 6 0  184 6 0  186 6 0  188 6 0  190 6 0  192 6 0  194 6 0  196 6 0  198 6 0  200 6 0  0 8 0  2 8 0  4 8 0  6 8 0  8 8 0  10 8 0  12 8 0  14 8 0  16 8 0  18 8 0  20 8 0  22 8 0  24 8 0  26 8 0  28 8 0  30 8 0  32 8 0  34 8 0  36 8 0  38 8 0  40 8 0  42 8 0  44 8 0  46 8 0  48 8 0  50 8 0  52 8 0  54 8 0  56 8 0  58 8 0  60 8 0  62 8 0  64 8 0  66 8 0  68 8 0  70 8 0  72 8 0  74 8 0  76 8 0  78 8 0  80 8 0  82 8 0  84 8 0  86 8 0  88 8 0  90 8 0  92 8 0  94 8 0  96 8 0  98 8 0  100 8 0  102 8 0  104 8 0  106 8 0  108 8 0  110 8 0  112 8 0  114 8 0  116 8 0  118 8 0  120 8 0  122 8 0  124 8 0  126 8 0  128 8 0  130 8 0  132 8 0  134 8 0  136 8 0  138 8 0  140 8 0  142 8 0  144 8 0  146 8 0  148 8 0  150 8 0  152 8 0  154 8 0  156 8 0  158 8 0  160 8 0  162 8 0  164 8 0  166 8 0  168 8 0  170 8 0  172 8 0  174 8 0  176 8 0  178 8 0  180 8 0  182 8 0  184 8 0  186 8 0  188 8 0  190 8 0  192 8 0  194 8 0  196 8 0  198 8 0  200 8 0  0 10 0  2 10 0  4 10 0  6 10 0  8 10 0  10 10 0  12 10 0  14 10 0  16 10 0  18 10 0  20 10 0  22 10 0  24 10 0  26 10 0  28 10 0  30 10 0  32 10 0  34 10 0  36 10 0  38 10 0  40 10 0  42 10 0  44 10 0  46 10 0  48 10 0  50 10 0  52 10 0  54 10 0  56 10 0  58 10 0  60 10 0  62 10 0  64 10 0  66 10 0  68 10 0  70 10 0  72 10 0  74 10 0  76 10 0  78 10 0  80 10 0  82 10 0  84 10 0  86 10 0  88 10 0  90 10 0  92 10 0  94 10 0  96 10 0  98 10 0  100 10 0  102 10 0  104 10 0  106 10 0  108 10 0  110 10 0  112 10 0  114 10 0  116 10 0  118 10 0  120 10 0  122 10 0  124 10 0  126 10 0  128 10 0  130 10 0  132 10 0  134 10 0  136 10 0  138 10 0  140 10 0  142 10 0  144 10 0  146 10 0  148 10 0  150 10 0  152 10 0  154 10 0  156 10 0  158 10 0  160 10 0  162 10 0  164 10 0  166 10 0  168 10 0  170 10 0  172 10 0  174 10 0  176 10 0  178 10 0  180 10 0  182 10 0  184 10 0  186 10 0  188 10 0  190 10 0  192 10 0  194 10 0  196 10 0  198 10 0  200 10 0  0 12 0  2 12 0  4 12 0  6 12 0  8 12 0  10 12 0  12 12 0  14 12 0  16 12 0  18 12 0  20 12 0  22 12 0  24 12 0  26 12 0  28 12 0  30 12 0  32 12 0  34 12 0  36 12 0  38 12 0  40 12 0  42 12 0  44 12 0  46 12 0  48 12 0  50 12 0  52 12 0  54 12 0  56 12 0  58 12 0  60 12 0  62 12 0  64 12 0  66 12 0  68 12 0  70 12 0  72 12 0  74 12 0  76 12 0  78 12 0  80 12 0  82 12 0  84 12 0  86 12 0  88 12 0  90 12 0  92 12 0  94 12 0  96 12 0  98 12 0  100 12 0  102 12 0  104 12 0  106 12 0  108 12 0  110 12 0  112 12 0  114 12 0  116 12 0  118 12 0  120 12 0  122 12 0  124 12 0  126 12 0  128 12 0  130 12 0  132 12 0  134 12 0  136 12 0  138 12 0  140 12 0  142 12 0  144 12 0  146 12 0  148 12 0  150 12 0  152 12 0  154 12 0  156 12 0  158 12 0  160 12 0  162 12 0  164 12 0  166 12 0  168 12 0  170 12 0  172 12 0  174 12 0  176 12 0  178 12 0  180 12 0  182 12 0  184 12 0  186 12 0  188 12 0  190 12 0  192 12 0  194 12 0  196 12 0  198 12 0  200 12 0  0 14 0  2 14 0  4 14 0  6 14 0  8 14 0  10 14 0  12 14 0  14 14 0  16 14 0  18 14 0  20 14 0  22 14 0  24 14 0  26 14 0  28 14 0  30 14 0  32 14 0  34 14 0  36 14 0  38 14 0  40 14 0  42 14 0  44 14 0  46 14 0  48 14 0  50 14 0  52 14 0  54 14 0  56 14 0  58 14 0  60 14 0  62 14 0  64 14 0  66 14 0  68 14 0  70 14 0  72 14 0  74 14 0  76 14 0  78 14 0  80 14 0  82 14 0  84 14 0  86 14 0  88 14 0  90 14 0  92 14 0  94 14 0  96 14 0  98 14 0  100 14 0  102 14 0  104 14 0  106 14 0  108 14 0  110 14 0  112 14 0  114 14 0  116 14 0  118 14 0  120 14 0  122 14 0  124 14 0  126 14 0  128 14 0  130 14 0  132 14 0  134 14 0  136 14 0  138 14 0  140 14 0  142 14 0  144 14 0  146 14 0  148 14 0  150 14 0  152 14 0  154 14 0  156 14 0  158 14 0  160 14 0  162 14 0  164 14 0  166 14 0  168 14 0  170 14 0  172 14 0  174 14 0  176 14 0  178 14 0  180 14 0  182 14 0  184 14 0  186 14 0  188 14 0  190 14 0  192 14 0  194 14 0  196 14 0  198 14 0  200 14 0  0 16 0  2 16 0  4 16 0  6 16 0  8 16 0  10 16 0  12 16 0  14 16 0  16 16 0  18 16 0  20 16 0  22 16 0  24 16 0  26 16 0  28 16 0  30 16 0  32 16 0  34 16 0  36 16 0  38 16 0  40 16 0  42 16 0  44 16 0  46 16 0  48 16 0  50 16 0  52 16 0  54 16 0  56 16 0  58 16 0  60 16 0  62 16 0  64 16 0  66 16 0  68 16 0  70 16 0  72 16 0  74 16 0  76 16 0  78 16 0  80 16 0  82 16 0  84 16 0  86 16 0  88 16 0  90 16 0  92 16 0  94 16 0  96 16 0  98 16 0  100 16 0  102 16 0  104 16 0  106 16 0  108 16 0  110 16 0  112 16 0  114 16 0  116 16 0  118 16 0  120 16 0  122 16 0  124 16 0  126 16 0  128 16 0  130 16 0  132 16 0  134 16 0  136 16 0  138 16 0  140 16 0  142 16 0  144 16 0  146 16 0  148 16 0  150 16 0  152 16 0  154 16 0  156 16 0  158 16 0  160 16 0  162 16 0  164 16 0  166 16 0  168 16 0  170 16 0  172 16 0  174 16 0  176 16 0  178 16 0  180 16 0  182 16 0  184 16 0  186 16 0  188 16 0  190 16 0  192 16 0  194 16 0  196 16 0  198 16 0  200 16 0  0 18 0  2 18 0  4 18 0  6 18 0  8 18 0  10 18 0  12 18 0  14 18 0  16 18 0  18 18 0  20 18 0  22 18 0  24 18 0  26 18 0  28 18 0  30 18 0  32 18 0  34 18 0  36 18 0  38 18 0  40 18 0  42 18 0  44 18 0  46 18 0  48 18 0  50 18 0  52 18 0  54 18 0  56 18 0  58 18 0  60 18 0  62 18 0  64 18 0  66 18 0  68 18 0  70 18 0  72 18 0  74 18 0  76 18 0  78 18 0  80 18 0  82 18 0  84 18 0  86 18 0  88 18 0  90 18 0  92 18 0  94 18 0  96 18 0  98 18 0  100 18 0  102 18 0  104 18 0  106 18 0  108 18 0  110 18 0  112 18 0  114 18 0  116 18 0  118 18 0  120 18 0  122 18 0  124 18 0  126 18 0  128 18 0  130 18 0  132 18 0  134 18 0  136 18 0  138 18 0  140 18 0  142 18 0  144 18 0  146 18 0  148 18 0  150 18 0  152 18 0  154 18 0  156 18 0  158 18 0  160 18 0  162 18 0  164 18 0  166 18 0  168 18 0  170 18 0  172 18 0  174 18 0  176 18 0  178 18 0  180 18 0  182 18 0  184 18 0  186 18 0  188 18 0  190 18 0  192 18 0  194 18 0  196 18 0  198 18 0  200 18 0  0 20 0  2 20 0  4 20 0  6 20 0  8 20 0  10 20 0  12 20 0  14 20 0  16 20 0  18 20 0  20 20 0  22 20 0  24 20 0  26 20 0  28 20 0  30 20 0  32 20 0  34 20 0  36 20 0  38 20 0  40 20 0  42 20 0  44 20 0  46 20 0  48 20 0  50 20 0  52 20 0  54 20 0  56 20 0  58 20 0  60 20 0  62 20 0  64 20 0  66 20 0  68 20 0  70 20 0  72 20 0  74 20 0  76 20 0  78 20 0  80 20 0  82 20 0  84 20 0  86 20 0  88 20 0  90 20 0  92 20 0  94 20 0  96 20 0  98 20 0  100 20 0  102 20 0  104 20 0  106 20 0  108 20 0  110 20 0  112 20 0  114 20 0  116 20 0  118 20 0  120 20 0  122 20 0  124 20 0  126 20 0  128 20 0  130 20 0  132 20 0  134 20 0  136 20 0  138 20 0  140 20 0  142 20 0  144 20 0  146 20 0  148 20 0  150 20 0  152 20 0  154 20 0  156 20 0
[...]
<PointData  Scalars="f_271-3"> 
<DataArray  type="Float64"  Name="f_271-3"  format="ascii">4.6539593822227830e-05  4.4117399013487674e-05  3.7589774993768882e-05  2.8827081215890757e-05  2.0029663140569852e-05  1.2973438552770446e-05  8.6550843333095899e-06  7.3315601165755792e-06  8.7230591861082706e-06  1.2183388290555801e-05  1.6802547944221629e-05  2.1511006937055515e-05  2.5250792872921215e-05  2.7209198565321829e-05  2.7028780503480927e-05  2.4875041318701842e-05  2.1313680256701298e-05  1.7073259010674220e-05  1.2824162947719267e-05  9.0523333275436613e-06  6.0259412292287300e-06  3.8194322477146188e-06  2.3676569927095494e-06  1.5347498249019645e-06  1.1828196496131112e-06  1.2235062128820056e-06  1.6400157765461391e-06  2.4769143926229513e-06  3.8034319990964932e-06  5.6594444517595378e-06  7.9933164830451333e-06  1.0604224155085996e-05  1.3114465950036040e-05  1.5011852279609789e-05  1.5790324552029352e-05  1.5156114704135772e-05  1.3190353060818573e-05  1.0351023618440135e-05  7.2934974486827973e-06  4.6123432433392097e-06  2.6519206502750737e-06  1.4738144613674753e-06  9.5635750774222763e-07  9.2074279184729546e-07  1.1966704393198771e-06  1.6254187538751772e-06  2.0508002310224460e-06  2.3331479067696638e-06  2.3821916366281880e-06  2.1842542280057801e-06  1.8039943790956093e-06  1.3581173902652697e-06  9.7353914958507330e-07  7.4676757699891951e-07  7.1525905540374776e-07  8.4079491210230732e-07  9.8841728937700914e-07  8.6675508513139813e-07  3.2231052879601122e-07  3.9100375804236452e-08  3.2593354389876368e-09  1.5452456375832039e-09  1.1158173215759296e-08  1.7816062246654335e-08  2.8404322646995729e-09  1.0227740156344880e-10  5.6421982826825259e-11  7.0933925987277276e-10  2.3426231014881133e-08  7.4139919040672302e-07  6.6366132912548935e-06  1.5973886221334718e-05  2.1295569812764259e-05  2.3114434750040597e-05  2.2410908695897256e-05  1.9880422471522182e-05  1.6316788775135672e-05  1.2478710796880613e-05  8.9291541367526155e-06  5.9905895845993268e-06  3.7812864677092472e-06  2.2746406269371136e-06  1.3584088070770093e-06  9.0031113578823333e-07  8.5515821428409424e-07  1.6180784137341177e-06  6.0364010617384915e-06  3.2874974945612934e-05  2.1022776280502098e-04  1.4353835108630857e-03  1.0103205568204808e-02  7.1312410421756720e-02  3.8339874685681408e-01  8.3435021130697584e-01  9.6508242335364236e-01  9.9121921134554325e-01  9.9736184797327143e-01  9.9902167622757054e-01  9.9953136689643052e-01  9.9970133323312649e-01  9.9974323746480553e-01  4.4560269171323231e-05  4.2274821032451582e-05  3.6104233991670758e-05  2.7791201162632916e-05  1.9402161439449962e-05  1.2625682483512171e-05  8.4297886009464106e-06  7.0851379516789455e-06  8.3472962757749164e-06  1.1614724260982630e-05  1.6025808477069149e-05  2.0558722567467504e-05  2.4196004090211233e-05  2.6149617445049533e-05  2.6063634997329703e-05  2.4081679467088871e-05  2.0733241208094557e-05  1.6709671443548187e-05  1.2653157841789808e-05  9.0339778851738183e-06  6.1160295861216135e-06  3.9779042131736896e-06  2.5635671903640964e-06  1.7476663467446058e-06  1.4009742350946098e-06  1.4396675215279579e-06  1.8464805797899419e-06  2.6609973352735414e-06  3.9445630741717122e-06  5.7287915034927516e-06  7.9569071032547655e-06  1.0430488275405444e-05  1.2785947690686419e-05  1.4537757926506539e-05  1.5212987673462926e-05  1.4544546147440779e-05  1.2620670593603895e-05  9.8827683836899048e-06  6.9542123719168059e-06  4.3971015476568702e-06  2.5350319373481737e-06  1.4237523023454823e-06  9.4550892865070191e-07  9.2765797918696289e-07  1.2044438105459430e-06  1.6207327333368648e-06  2.0250798852408319e-06  2.2844029352022997e-06  2.3155150424448027e-06  2.1100097808797848e-06  1.7341932668916368e-06  1.3024351419521784e-06  9.3647246026832426e-07  7.2681163822716994e-07  7.0633965218023375e-07  8.3633068241507331e-07  9.9215266263541301e-07  9.2362955976395554e-07  4.3565901081565729e-07  7.8843246829728573e-08  1.2110343513731556e-08  9.4440711128702880e-09  3.7741652939832695e-08  4.5241246452939785e-08  7.7460561349416162e-09  6.0497321035192157e-10  3.8060438852354860e-10  3.1083832372597826e-09  5.3041380382579616e-08  1.0905418017217342e-06  7.3620711227545321e-06  1.5754869274063655e-05  2.0521030155690369e-05  2.2196822541576333e-05  2.1531121162226825e-05  1.9143412444394789e-05  1.5772431376442533e-05  1.2131444524117354e-05  8.7538148594477795e-06  5.9482749871135883e-06  3.8309916068006584e-06  2.3804948235541364e-06  1.4934818835741505e-06  1.0471031014880123e-06  1.0003904213623032e-06  1.7246432535472056e-06  5.8608735214054840e-06  3.0589213995065857e-05  1.9132206342191470e-04  1.2786102342018455e-03  8.7311069090834550e-03  5.8505560891588648e-02  3.1895744796614361e-01  7.8483346635849993e-01  9.5068892032727137e-01  9.8616726518643349e-01  9.9526032442297807e-01  9.9797454508225503e-01  9.9890351925749221e-01  9.9924163972554292e-01  9.9932949343566668e-01  3.9111500209277284e-05  3.7192713765878222e-05  3.1983501546907347e-05  2.4891477893868852e-05  1.7625935777832906e-05  1.1635166272720445e-05  7.8005531776476314e-06  6.4211987144421485e-06  7.3431338915394230e-06  1.0084141129673905e-05  1.3915498273464765e-05  1.7949341504751300e-05  2.1284225497051856e-05  2.3204982495830241e-05  2.3364334485878735e-05  2.1849105091095941e-05  1.9090820526075590e-05  1.5677936387751300e-05  1.2172703309965061e-05  8.9990258845158643e-06  6.4056984992182551e-06  4.4797528034238043e-06  3.1878115443273085e-06  2.4316512119300397e-06  2.1047740414645966e-06  2.1354664607733208e-06  2.5055357659900833e-06  3.2419748689070032e-06  4.3863267117188352e-06  5.9501811007637669e-06  7.8660549312898691e-06  9.9457989944844597e-06  1.1867459740740162e-05  1.3219462454486477e-05  1.3617802627856962e-05  1.2864741088309605e-05  1.1064317729761695e-05  8.6105052099181157e-06  6.0387761164440281e-06  3.8229120668210364e-06  2.2301573558783467e-06  1.3002317815747805e-06  9.2570392717896222e-07  9.5075051887373549e-07  1.2229027119578354e-06  1.5985185516499469e-06  1.9409545403165383e-06  2.1362981116352322e-06  2.1207137787816904e-06  1.8990396296190485e-06  1.5402838974453791e-06  1.1506977072070003e-06  8.3676302591825719e-07  6.7237061231293000e-07  6.7847904998692506e-07  8.1549251813538332e-07  9.8183465586935576e-07  1.0113456055616670e-06  7.2969429272816142e-07  3.0830707221869629e-07  1.2225959551298846e-07  1.1338682219020676e-07  1.8563446944496379e-07  1.7689213312331259e-07  6.3012477422593544e-08  1.4977539008370676e-08  1.1312084392551607e-08  3.8425877793430704e-08  3.1408946898470069e-07  2.5187961196257277e-06  8.7363750096466108e-06  1.4762373923607615e-05  1.8315239828390146e-05  1.9648054620395642e-05  1.9091571098397035e-05  1.7093992264302846e-05  1.4252295132917339e-05  1.1159103863962059e-05  8.2673168238218949e-06  5.8466353989625385e-06  4.0050747514017583e-06  2.7324115129704521e-06  1.9469071531840619e-06  1.5488929360668585e-06  1.5072874589543615e-06  2.1304386865993426e-06  5.5284514644845475e-06  2.4898972388016950e-05  1.4478456750746150e-04  9.0780018706086067e-04  5.6989163238480734e-03  3.3880886588721917e-02  1.7816143949648189e-01  5.8765590960608971e-01  8.7927559242914544e-01  9.6033197908413659e-01  9.8375844746191865e-01  9.9189987254884671e-01  9.9505423926676517e-01  9.9632676039589196e-01  9.9667790661138855e-01  3.1469072409251555e-05  3.0039208723234000e-05  2.6122411751706026e-05  2.0698622683818435e-05  1.5006833301120850e-05  1.0160019860926689e-05  6.8982232326259953e-06  5.5355437234796156e-06  6.0256290382084125e-06  8.0430667856156568e-06  1.1043752911969942e-05  1.4333890824944254e-05  1.7186500662528933e-05  1.9002634449865679e-05  1.9460788698399548e-05  1.8579210458035361e-05  1.6658155150121736e-05  1.4141397824939538e-05  1.1472961925953751e-05  9.0023209864746653e-06  6.9468332102578912e-06  5.3956650806142965e-06  4.3387427050282374e-06  3.7091743725386141e-06  3.4279652286873885e-06  3.4388404471615236e-06  3.7237875725519551e-06  4.2965177526675317e-06  5.1777723685090163e-06  6.3602530209987723e-06  7.7721892751277970e-06  9.2504572386674178e-06  1.0539009970653658e-05  1.1331029638330417e-05  1.1360564272626296e-05  1.0515697410455426e-05  8.9121307792908649e-06  6.8720379702001241e-06  4.8076842163179712e-06  3.0714944732533356e-06  1.8535325725505097e-06  1.1709115837238139e-06  9.2954160854717080e-07  9.9726044856812433e-07  1.2429338638408053e-06  1.5437876030969609e-06  1.7886648308515815e-06  1.8930667674154616e-06  1.8195167999294537e-06  1.5877447150407192e-06  1.2655485043189034e-06  9.4338253187740765e-07  7.0391076280303268e-07  5.9778980689375888e-07  6.3134841122223472e-07  7.6585074266283916e-07  9.2504250072238055e-07  1.0099019561725660e-06  9.3350125031657096e-07  7.0819994597673599e-07  5.0959577017283196e-07  4.5327834260229539e-07  4.7668782859700536e-07  4.6875883006241697e-07  3.6295366161432488e-07  2.3494401786135709e-07  2.2487842893226299e-07  4.6115932346101612e-07  1.5714670060752949e-06  4.7016975428369177e-06  9.0372200651119548e-06  1.2698896276632807e-05  1.5063751222843092e-05  1.6013404101138172e-05  1.5619923848111521e-05  1.4160871680178545e-05  1.2058852373287977e-05  9.7498652772941557e-06  7.5778176615340773e-06  5.7551853850503538e-06  4.3721650903497268e-06  3.4254850755114781e-06  2.8534335101145505e-06  2.5787848965865200e-06  2.5771425385254334e-06  3.0736059882753418e-06  5.5265811075986887e-06  1.8474229304420818e-05  9.2532681208019126e-05  5.2143679135653966e-04  2.9045365052050177e-03  1.5083604159298358e-02  6.8800423444354442e-02  2.6325877669291986e-01  6.2245945231706268e-01  8.4875353812325294e-01  9.3174695073046454e-01  9.6249612635194526e-01  9.7538775135860900e-01  9.8099909929468820e-01  9.8262998654680622e-01  2.3219412382688086e-05  2.2280354057383194e-05  1.9676358324966479e-05  1.5987156867285256e-05  1.1990967054303141e-05  8.4445720781704876e-06  5.9077253309638900e-06  4.6724031306174960e-06  4.7765825751479048e-06  6.0449906348929187e-06  8.1271205886961080e-06  1.0545544443200004e-05  1.2778608058834583e-05  1.4376034164762275e-05  1.5069287369991065e-05  1.4824879843536883e-05  1.3815580127156900e-05  1.2331702370770366e-05  1.0681382966965104e-05  9.1180727539508179e-06  7.8059887136804439e-06  6.8164782353035552e-06  6.1453329310509528e-06  5.7429500127598515e-06  5.5486306492340058e-06  5.5186464580979845e-06  5.6392038576091574e-06  5.9210495272154017e-06  6.3792540605440406e-06  7.0060773216139963e-06  7.7458566558770245e-06  8.4808093165021089e-06  9.0374560615682575e-06  9.2222075419261303e-06  8.8845780784721810e-06  7.9862700605235328e-06  6.6381180288599618e-06  5.0752125335826678e-06  3.5754170158923993e-06  2.3627486103939091e-06  1.5459713805540365e-06  1.1174450434008091e-06  9.9656335797860689e-07  1.0784761672940760e-06  1.2609650960759815e-06  1.4520645589768581e-06  1.5752946237440355e-06  1.5808707854068898e-06  1.4574155278995485e-06  1.2342535601061699e-06  9.6999093236923814e-07  7.3163530980210122e-07  5.7318980264546593e-07  5.2129177649091098e-07  5.7070362167878849e-07  6.8832080289523167e-07  8.2301711833300385e-07  9.2011297497944869e-07  9.4180543196661477e-07  8.9175377903075971e-07  8.2234118193554158e-07  7.9292268680634327e-07  8.1734459772837135e-07  8.7586189742088856e-07  9.3676556103327800e-07  9.9711444122402637e-07  1.1925701579922024e-06  1.8204680187695845e-06  3.2336292640944769e-06  5.4129823262931667e-06  7.8150660414671140e-06  9.9161501015991845e-06  1.1372763576658761e-05  1.2001773247241376e-05  1.1790865714442333e-05  1.0897486035326080e-05  9.5898598994526948e-06  8.1563557190624394e-06  6.8326871659005931e-06  5.7686354366457520e-06  5.0259920445841370e-06  4.5927402614878617e-06  4.4068465334684440e-06  4.3911402523494562e-06  4.5085560481549665e-06  4.8948751542726927e-06  6.4294422376144407e-06  1.3809091828422187e-05  5.2091363730066777e-05  2.4963825068494079e-04  1.2104933819314016e-03  5.4221877484214647e-03  2.1735166028783087e-02  7.4538576856938418e-02  2.1961094826986993e-01  4.6965164139183668e-01  6.9163043468857655e-01  8.1144984909812934e-01  8.6994368350343665e-01  8.9803064673510891e-01  9.0652239234192156e-01  1.5745483858314586e-05  1.5210346883126978e-05  1.3704133430523987e-05  1.1511513622266163e-05  9.0485608332825962e-06  6.7614084089499951e-06  5.0187708474832255e-06  4.0477367083185115e-06  3.9210303944387099e-06  4.5707791631006286e-06  5.8089876097502510e-06  7.3573251685667121e-06  8.8980433348464807e-06  1.0145270858956251e-05  1.0914834716843672e-05  1.1161917074919973e-05  1.0969995106808740e-05  1.0501133560315089e-05  9.9346677344591613e-06  9.4180019172560169e-06  9.0389985033221787e-06  8.8189429411831423e-06  8.7227014151225564e-06  8.6827603741352726e-06  8.6308335942858229e-06  8.5259725577240510e-06  8.3675166069501959e-06  8.1878616872364700e-06  8.0299893391180812e-06  7.9208785180358677e-06  7.8513848191490329e-06  7.7691594201037114e-06  7.5879469395197986e-06  7.2139310165438802e-06  6.5839966722765044e-06  5.7014854336581153e-06  4.6495804857459469e-06  3.5699337195237577e-06  2.6134734649622920e-06  1.8880718887863359e-06  1.4298704019319293e-06  1.2091388391247643e-06  1.1591455179167013e-06  1.2055536930098218e-06  1.2823365114105829e-06  1.3364705974542447e-06  1.3306270395647590e-06  1.2479843572463363e-06  1.0959043649044231e-06  9.0343051805445941e-07  7.1139817796272138e-07  5.5892484381421918e-07  4.7209447769917771e-07  4.5879338571164303e-07  5.0998838860997988e-07  6.0511948788696505e-07  7.1899590849711644e-07  8.2887792726429820e-07  9.2137326547663919e-07  9.9737624525277463e-07  1.0704038387584705e-06  1.1563489320721470e-06  1.2630589248575892e-06  1.3899946189359182e-06  1.5380454496844449e-06  1.7299488391516896e-06  2.0418236312624912e-06  2.6003586129833086e-06  3.4877128655917601e-06  4.6467721486698162e-06  5.9039597209726709e-06  7.0436181205131871e-06  7.8728454630880996e-06  8.2707013283085335e-06  8.2218389725037501e-06  7.8184657347176328e-06  7.2253505956932667e-06  6.6264243220728962e-06  6.1777476384433976e-06  5.9783563252515697e-06  6.0569929730635626e-06  6.3710688951025115e-06  6.8200719152426555e-06  7.2787114416739153e-06  7.6533883558413287e-06  7.9816939210423453e-06  8.7309174132087259e-06  1.2157737586418914e-05  2.8763924095393535e-05  1.0535257566330122e-04  4.3120738358494177e-04  1.6817946014641861e-03  5.8811415828816079e-03  1.8291879184464000e-02  4.9232377222309921e-02  1.1554980868093187e-01  2.2355413259829360e-01  3.4969500520059976e-01  4.6386331754137261e-01  5.4135219341044571e-01  5.6821878080435673e-01  9.9131979614822539e-06  9.6542158431942727e-06  8.9160268161478290e-06  7.8177592134855702e-06  6.5503073275661752e-06  5.3364243237266904e-06  4.3741220439308721e-06  3.7949422382079406e-06  3.6503746267174478e-06  3.9174618222433890e-06  4.5117391759735168e-06  5.3054661592339107e-06  6.1549445707679334e-06  6.9358312063344337e-06  7.5758243089816231e-06  8.0704210892186417e-06  8.4743074045165763e-06  8.8731676358824902e-06  9.3486107679847033e-06  9.9478596475848008e-06  1.0663960857540551e-05  1.1428899627914840e-05  1.2123216666762762e-05  1.2605584453385733e-05  1.2757568505732975e-05  1.2525788931413129e-05  1.1939372641698184e-05  1.1093333938101564e-05  1.0109143378340324e-05  9.0944835876311901e-06  8.1185850193610669e-06  7.2069461881413078e-06  6.3511178936599704e-06  5.5275449926719993e-06  4.7192715861832606e-06  3.9327256359241133e-06  3.2015225023730522e-06  2.5741374907717083e-06  2.0913340419563916e-06  1.7660989603483259e-06  1.5776490196540238e-06  1.4818414907781451e-06  1.4297087906948514e-06  1.3823207085377525e-06  1.3159944724812888e-06  1.2203292490887874e-06  1.0947822310046412e-06  9.4678559336004133e-07  7.9051707493721262e-07  6.4420146367158365e-07  5.2542124283995626e-07  4.4630803959748858e-07  4.1139063374452544e-07  4.1932523849574823e-07  4.6698362012762099e-07  5.5286970914174318e-07  6.7771172412905167e-07  8.4221000991413305e-07  1.0434969583773693e-06  1.2721140759647868e-06  1.5108453030597051e-06  1.7365779258396520e-06  1.9261337274219610e-06  2.0654024670290209e-06  2.1590718484789558e-06  2.2377382258680108e-06  2.3573687824141755e-06  2.5825963686608128e-06  2.9543571435539923e-06  3.4624238305501923e-06  4.0421662492187724e-06  4.5954130567346241e-06  5.0246477138794513e-06  5.2693620312954967e-06  5.3319910749255008e-06  5.2825418042211597e-06  5.2407114732255556e-06  5.3449063368060835e-06  5.7191767458349687e-06  6.4424736339171047e-06  7.5199592411898318e-06  8.8608093109713817e-06  1.0277087485937491e-05  1.1521108560599307e-05  1.2365844970240189e-05  1.2717859617386960e-05  1.2790751146286561e-05  1.3618797804688846e-05  1.9151199562945382e-05  4.4220613688778126e-05  1.4071933253470930e-04  4.6853367025146054e-04  1.4579687527122272e-03  4.0647586342540338e-03  1.0060736280802849e-02  2.1733148513327638e-02  4.0981600162190206e-02  6.8226983203904260e-02  9.9837638651757335e-02  1.2654799890477808e-01  1.3715672067313656e-01  6.0332459150186499e-06  5.9214404917642873e-06  5.6105854535366883e-06  5.1703124638997619e-06  4.6995729116530484e-06  4.2981270402689705e-06  4.0368081767434976e-06  3.9417441327495982e-06  3.9972265360473696e-06  4.1604840304439995e-06  4.3797317788938650e-06  4.6117539904740282e-06  4.8381898328760388e-06  5.0774703744234906e-06  5.3869191696165744e-06  5.8519706091989329e-06  6.5651294015140129e-06  7.6008216297754813e-06  8.9914189107253552e-06  1.0706611306424174e-05  1.2636957421224398e-05  1.4586555029781093e-05  1.6288065753889293e-05  1.7454300529736502e-05  1.7861343160535212e-05  1.7427073340639945e-05  1.6238324802392335e-05  1.4509615145725764e-05  1.2502116435669681e-05  1.0450255406597403e-05  8.5241098506347243e-06  6.8255961917868129e-06  5.4019907248237251e-06  4.2632440661933629e-06  3.3969975212803400e-06  2.7789443584814433e-06  2.3772460428836432e-06  2.1517182729833463e-06  2.0516694493014605e-06  2.0177082071634104e-06  1.9903161237460170e-06  1.9226917252480771e-06  1.7913429959977524e-06  1.5986175596787843e-06  1.3662876780858469e-06  1.1242813496190864e-06  9.0011437809352062e-07  7.1259942646566843e-07  5.7033714454558041e-07  4.7331975008534058e-07  4.1562405771656818e-07  3.8855311881174445e-07  3.8499094565032299e-07  4.0490137517703888e-07  4.5933721793554328e-07  5.6937599743891105e-07  7.5867587024752364e-07  1.0418292714455172e-06  1.4129575729089490e-06  1.8394965714305277e-06  2.2650440098371296e-06  2.6222801880533919e-06  2.8527045141026696e-06  2.9262171329217848e-06  2.8529009131537404e-06  2.6822281764776330e-06  2.4892616929418617e-06  2.3514752180596789e-06  2.3235418473556896e-06  2.4195622491719365e-06  2.6103166488273941e-06  2.8375406096264569e-06  3.0409369919818120e-06  3.1886941295714485e-06  3.3002126092601205e-06  3.4527190598789176e-06  3.7708854022341042e-06  4.4048239510732606e-06  5.5009618411409610e-06  7.1637207403539852e-06  9.4037492013272617e-06  1.2080744939967696e-05  1.4872384251099981e-05  1.7313792563829790e-05  1.8928877919238828e-05  1.9418660358118244e-05  1.8837712280755352e-05  1.7772417591514955e-05  1.7844658069339137e-05  2.3574248884550229e-05  4.7959140318847815e-05  1.2610992194510398e-04  3.4094204913169692e-04  8.5954313960307502e-04  1.9496668274220509e-03  3.9339828955405323e-03  7.0628565372660010e-03  1.1288223759058448e-02  1.5987070441220632e-02  1.9857302034701905e-02  2.1382888655197170e-02  3.9998353564946750e-06  3.9276632913533275e-06  3.7544476368010166e-06  3.5858978925674899e-06  3.5348387363869762e-06  3.6691120904285472e-06  3.9858601474352510e-06  4.4158937082840889e-06  4.8495271785723537e-06  5.1715208397242922e-06  5.2954850890681116e-06  5.1930998384671962e-06  4.9142427709462597e-06  4.5903213634419500e-06  4.4139150716155485e-06  4.5984221523723834e-06  5.3323606888000884e-06  6.7420683528353165e-06  8.8654239624347263e-06  1.1629915192250724e-05  1.4829792917407061e-05  1.81113493504