<?xml version="1.0"?>
<VTKFile type="UnstructuredGrid"  version="0.1"  >
<UnstructuredGrid>
<Piece  NumberOfPoints="20201" NumberOfCells="40000">
<Points>
<DataArray  type="Float64"  NumberOfComponents="3"  format="ascii">0 0 0  2 0 0  4 0 0  6 0 0  8 0 0  10 0 0  12 0 0  14 0 0  16 0 0  18 0 0  20 0 0  22 0 0  24 0 0  26 0 0  28 0 0  30 0 0  32 0 0  34 0 0  36 0 0  38 0 0  40 0 0  42 0 0  44 0 0  46 0 0  48 0 0  50 0 0  52 0 0  54 0 0  56 0 0  58 0 0  60 0 0  62 0 0  64 0 0  66 0 0  68 0 0  70 0 0  72 0 0  74 0 0  76 0 0  78 0 0  80 0 0  82 0 0  84 0 0  86 0 0  88 0 0  90 0 0  92 0 0  94 0 0  96 0 0  98 0 0  100 0 0  102 0 0  104 0 0  106 0 0  108 0 0  110 0 0  112 0 0  114 0 0  116 0 0  118 0 0  120 0 0  122 0 0  124 0 0  126 0 0  128 0 0  130 0 0  132 0 0  134 0 0  136 0 0  138 0 0  140 0 0  142 0 0  144 0 0  146 0 0  148 0 0  150 0 0  152 0 0  154 0 0  156 0 0  158 0 0  160 0 0  162 0 0  164 0 0  166 0 0  168 0 0  170 0 0  172 0 0  174 0 0  176 0 0  178 0 0  180 0 0  182 0 0  184 0 0  186 0 0  188 0 0  190 0 0  192 0 0  194 0 0  196 0 0  198 0 0  200 0 0  0 2 0  2 2 0  4 2 0  6 2 0  8 2 0  10 2 0  12 2 0  14 2 0  16 2 0  18 2 0  20 2 0  22 2 0  24 2 0  26 2 0  28 2 0  30 2 0  32 2 0  34 2 0  36 2 0  38 2 0  40 2 0  42 2 0  44 2 0  46 2 0  48 2 0  50 2 0  52 2 0  54 2 0  56 2 0  58 2 0  60 2 0  62 2 0  64 2 0  66 2 0  68 2 0  70 2 0  72 2 0  74 2 0  76 2 0  78 2 0  80 2 0  82 2 0  84 2 0  86 2 0  88 2 0  90 2 0  92 2 0  94 2 0  96 2 0  98 2 0  100 2 0  102 2 0  104 2 0  106 2 0  108 2 0  110 2 0  112 2 0  114 2 0  116 2 0  118 2 0  120 2 0  122 2 0  124 2 0  126 2 0  128 2 0  130 2 0  132 2 0  134 2 0  136 2 0  138 2 0  140 2 0  142 2 0  144 2 0  146 2 0  148 2 0  150 2 0  152 2 0  154 2 0  156 2 0  158 2 0  160 2 0  162 2 0  164 2 0  166 2 0  168 2 0  170 2 0  172 2 0  174 2 0  176 2 0  178 2 0  180 2 0  182 2 0  184 2 0  186 2 0  188 2 0  190 2 0  192 2 0  194 2 0  196 2 0  198 2 0  200 2 0  0 4 0  2 4 0  4 4 0  6 4 0  8 4 0  10 4 0  12 4 0  14 4 0  16 4 0  18 4 0  20 4 0  22 4 0  24 4 0  26 4 0  28 4 0  30 4 0  32 4 0  34 4 0  36 4 0  38 4 0  40 4 0  42 4 0  44 4 0  46 4 0  48 4 0  50 4 0  52 4 0  54 4 0  56 4 0  58 4 0  60 4 0  62 4 0  64 4 0  66 4 0  68 4 0  70 4 0  72 4 0  74 4 0  76 4 0  78 4 0  80 4 0  82 4 0  84 4 0  86 4 0  88 4 0  90 4 0  92 4 0  94 4 0  96 4 0  98 4 0  100 4 0  102 4 0  104 4 0  106 4 0  108 4 0  110 4 0  112 4 0  114 4 0  116 4 0  118 4 0  120 4 0  122 4 0  124 4 0  126 4 0  128 4 0  130 4 0  132 4 0  134 4 0  136 4 0  138 4 0  140 4 0  142 4 0  144 4 0  146 4 0  148 4 0  150 4 0  152 4 0  154 4 0  156 4 0  158 4 0  160 4 0  162 4 0  164 4 0  166 4 0  168 4 0  170 4 0  172 4 0  174 4 0  176 4 0  178 4 0  180 4 0  182 4 0  184 4 0  186 4 0  188 4 0  190 4 0  192 4 0  194 4 0  196 4 0  198 4 0  200 4 0  0 6 0  2 6 0  4 6 0  6 6 0  8 6 0  10 6 0  12 6 0  14 6 0  16 6 0  18 6 0  20 6 0  22 6 0  24 6 0  26 6 0  28 6 0  30 6 0  32 6 0  34 6 0  36 6 0  38 6 0  40 6 0  42 6 0  44 6 0  46 6 0  48 6 0  50 6 0  52 6 0  54 6 0  56 6 0  58 6 0  60 6 0  62 6 0  64 6 0  66 6 0  68 6 0  70 6 0  72 6 0  74 6 0  76 6 0  78 6 0  80 6 0  82 6 0  84 6 0  86 6 0  88 6 0  90 6 0  92 6 0  94 6 0  96 6 0  98 6 0  100 6 0  102 6 0  104 6 0  106 6 0  108 6 0  110 6 0  112 6 0  114 6 0  116 6 0  118 6 0  120 6 0  122 6 0  124 6 0  126 6 0  128 6 0  130 6 0  132 6 0  134 6 0  136 6 0  138 6 0  140 6 0  142 6 0  144 6 0  146 6 0  148 6 0  150 6 0  152 6 0  154 6 0  156 6 0  158 6 0  160 6 0  162 6 0  164 6 0  166 6 0  168 6 0  170 6 0  172 6 0  174 6 0  176 6 0  178 6 0  180 6 0  182 6 0  184 6 0  186 6 0  188 6 0  190 6 0  192 6 0  194 6 0  196 6 0  198 6 0  200 6 0  0 8 0  2 8 0  4 8 0  6 8 0  8 8 0  10 8 0  12 8 0  14 8 0  16 8 0  18 8 0  20 8 0  22 8 0  24 8 0  26 8 0  28 8 0  30 8 0  32 8 0  34 8 0  36 8 0  38 8 0  40 8 0  42 8 0  44 8 0  46 8 0  48 8 0  50 8 0  52 8 0  54 8 0  56 8 0  58 8 0  60 8 0  62 8 0  64 8 0  66 8 0  68 8 0  70 8 0  72 8 0  74 8 0  76 8 0  78 8 0  80 8 0  82 8 0  84 8 0  86 8 0  88 8 0  90 8 0  92 8 0  94 8 0  96 8 0  98 8 0  100 8 0  102 8 0  104 8 0  106 8 0  108 8 0  110 8 0  112 8 0  114 8 0  116 8 0  118 8 0  120 8 0  122 8 0  124 8 0  126 8 0  128 8 0  130 8 0  132 8 0  134 8 0  136 8 0  138 8 0  140 8 0  142 8 0  144 8 0  146 8 0  148 8 0  150 8 0  152 8 0  154 8 0  156 8 0  158 8 0  160 8 0  162 8 0  164 8 0  166 8 0  168 8 0  170 8 0  172 8 0  174 8 0  176 8 0  178 8 0  180 8 0  182 8 0  184 8 0  186 8 0  188 8 0  190 8 0  192 8 0  194 8 0  196 8 0  198 8 0  200 8 0  0 10 0  2 10 0  4 10 0  6 10 0  8 10 0  10 10 0  12 10 0  14 10 0  16 10 0  18 10 0  20 10 0  22 10 0  24 10 0  26 10 0  28 10 0  30 10 0  32 10 0  34 10 0  36 10 0  38 10 0  40 10 0  42 10 0  44 10 0  46 10 0  48 10 0  50 10 0  52 10 0  54 10 0  56 10 0  58 10 0  60 10 0  62 10 0  64 10 0  66 10 0  68 10 0  70 10 0  72 10 0  74 10 0  76 10 0  78 10 0  80 10 0  82 10 0  84 10 0  86 10 0  88 10 0  90 10 0  92 10 0  94 10 0  96 10 0  98 10 0  100 10 0  102 10 0  104 10 0  106 10 0  108 10 0  110 10 0  112 10 0  114 10 0  116 10 0  118 10 0  120 10 0  122 10 0  124 10 0  126 10 0  128 10 0  130 10 0  132 10 0  134 10 0  136 10 0  138 10 0  140 10 0  142 10 0  144 10 0  146 10 0  148 10 0  150 10 0  152 10 0  154 10 0  156 10 0  158 10 0  160 10 0  162 10 0  164 10 0  166 10 0  168 10 0  170 10 0  172 10 0  174 10 0  176 10 0  178 10 0  180 10 0  182 10 0  184 10 0  186 10 0  188 10 0  190 10 0  192 10 0  194 10 0  196 10 0  198 10 0  200 10 0  0 12 0  2 12 0  4 12 0  6 12 0  8 12 0  10 12 0  12 12 0  14 12 0  16 12 0  18 12 0  20 12 0  22 12 0  24 12 0  26 12 0  28 12 0  30 12 0  32 12 0  34 12 0  36 12 0  38 12 0  40 12 0  42 12 0  44 12 0  46 12 0  48 12 0  50 12 0  52 12 0  54 12 0  56 12 0  58 12 0  60 12 0  62 12 0  64 12 0  66 12 0  68 12 0  70 12 0  72 12 0  74 12 0  76 12 0  78 12 0  80 12 0  82 12 0  84 12 0  86 12 0  88 12 0  90 12 0  92 12 0  94 12 0  96 12 0  98 12 0  100 12 0  102 12 0  104 12 0  106 12 0  108 12 0  110 12 0  112 12 0  114 12 0  116 12 0  118 12 0  120 12 0  122 12 0  124 12 0  126 12 0  128 12 0  130 12 0  132 12 0  134 12 0  136 12 0  138 12 0  140 12 0  142 12 0  144 12 0  146 12 0  148 12 0  150 12 0  152 12 0  154 12 0  156 12 0  158 12 0  160 12 0  162 12 0  164 12 0  166 12 0  168 12 0  170 12 0  172 12 0  174 12 0  176 12 0  178 12 0  180 12 0  182 12 0  184 12 0  186 12 0  188 12 0  190 12 0  192 12 0  194 12 0  196 12 0  198 12 0  200 12 0  0 14 0  2 14 0  4 14 0  6 14 0  8 14 0  10 14 0  12 14 0  14 14 0  16 14 0  18 14 0  20 14 0  22 14 0  24 14 0  26 14 0  28 14 0  30 14 0  32 14 0  34 14 0  36 14 0  38 14 0  40 14 0  42 14 0  44 14 0  46 14 0  48 14 0  50 14 0  52 14 0  54 14 0  56 14 0  58 14 0  60 14 0  62 14 0  64 14 0  66 14 0  68 14 0  70 14 0  72 14 0  74 14 0  76 14 0  78 14 0  80 14 0  82 14 0  84 14 0  86 14 0  88 14 0  90 14 0  92 14 0  94 14 0  96 14 0  98 14 0  100 14 0  102 14 0  104 14 0  106 14 0  108 14 0  110 14 0  112 14 0  114 14 0  116 14 0  118 14 0  120 14 0  122 14 0  124 14 0  126 14 0  128 14 0  130 14 0  132 14 0  134 14 0  136 14 0  138 14 0  140 14 0  142 14 0  144 14 0  146 14 0  148 14 0  150 14 0  152 14 0  154 14 0  156 14 0  158 14 0  160 14 0  162 14 0  164 14 0  166 14 0  168 14 0  170 14 0  172 14 0  174 14 0  176 14 0  178 14 0  180 14 0  182 14 0  184 14 0  186 14 0  188 14 0  190 14 0  192 14 0  194 14 0  196 14 0  198 14 0  200 14 0  0 16 0  2 16 0  4 16 0  6 16 0  8 16 0  10 16 0  12 16 0  14 16 0  16 16 0  18 16 0  20 16 0  22 16 0  24 16 0  26 16 0  28 16 0  30 16 0  32 16 0  34 16 0  36 16 0  38 16 0  40 16 0  42 16 0  44 16 0  46 16 0  48 16 0  50 16 0  52 16 0  54 16 0  56 16 0  58 16 0  60 16 0  62 16 0  64 16 0  66 16 0  68 16 0  70 16 0  72 16 0  74 16 0  76 16 0  78 16 0  80 16 0  82 16 0  84 16 0  86 16 0  88 16 0  90 16 0  92 16 0  94 16 0  96 16 0  98 16 0  100 16 0  102 16 0  104 16 0  106 16 0  108 16 0  110 16 0  112 16 0  114 16 0  116 16 0  118 16 0  120 16 0  122 16 0  124 16 0  126 16 0  128 16 0  130 16 0  132 16 0  134 16 0  136 16 0  138 16 0  140 16 0  142 16 0  144 16 0  146 16 0  148 16 0  150 16 0  152 16 0  154 16 0  156 16 0  158 16 0  160 16 0  162 16 0  164 16 0  166 16 0  168 16 0  170 16 0  172 16 0  174 16 0  176 16 0  178 16 0  180 16 0  182 16 0  184 16 0  186 16 0  188 16 0  190 16 0  192 16 0  194 16 0  196 16 0  198 16 0  200 16 0  0 18 0  2 18 0  4 18 0  6 18 0  8 18 0  10 18 0  12 18 0  14 18 0  16 18 0  18 18 0  20 18 0  22 18 0  24 18 0  26 18 0  28 18 0  30 18 0  32 18 0  34 18 0  36 18 0  38 18 0  40 18 0  42 18 0  44 18 0  46 18 0  48 18 0  50 18 0  52 18 0  54 18 0  56 18 0  58 18 0  60 18 0  62 18 0  64 18 0  66 18 0  68 18 0  70 18 0  72 18 0  74 18 0  76 18 0  78 18 0  80 18 0  82 18 0  84 18 0  86 18 0  88 18 0  90 18 0  92 18 0  94 18 0  96 18 0  98 18 0  100 18 0  102 18 0  104 18 0  106 18 0  108 18 0  110 18 0  112 18 0  114 18 0  116 18 0  118 18 0  120 18 0  122 18 0  124 18 0  126 18 0  128 18 0  130 18 0  132 18 0  134 18 0  136 18 0  138 18 0  140 18 0  142 18 0  144 18 0  146 18 0  148 18 0  150 18 0  152 18 0  154 18 0  156 18 0  158 18 0  160 18 0  162 18 0  164 18 0  166 18 0  168 18 0  170 18 0  172 18 0  174 18 0  176 18 0  178 18 0  180 18 0  182 18 0  184 18 0  186 18 0  188 18 0  190 18 0  192 18 0  194 18 0  196 18 0  198 18 0  200 18 0  0 20 0  2 20 0  4 20 0  6 20 0  8 20 0  10 20 0  12 20 0  14 20 0  16 20 0  18 20 0  20 20 0  22 20 0  24 20 0  26 20 0  28 20 0  30 20 0  32 20 0  34 20 0  36 20 0  38 20 0  40 20 0  42 20 0  44 20 0  46 20 0  48 20 0  50 20 0  52 20 0  54 20 0  56 20 0  58 20 0  60 20 0  62 20 0  64 20 0  66 20 0  68 20 0  70 20 0  72 20 0  74 20 0  76 20 0  78 20 0  80 20 0  82 20 0  84 20 0  86 20 0  88 20 0  90 20 0  92 20 0  94 20 0  96 20 0  98 20 0  100 20 0  102 20 0  104 20 0  106 20 0  108 20 0  110 20 0  112 20 0  114 20 0  116 20 0  118 20 0  120 20 0  122 20 0  124 20 0  126 20 0  128 20 0  130 20 0  132 20 0  134 20 0  136 20 0  138 20 0  140 20 0  142 20 0  144 20 0  146 20 0  148 20 0  150 20 0  152 20 0  154 20 0  156 20 0
[...]
<PointData  Scalars="f_271-3"> 
<DataArray  type="Float64"  Name="f_271-3"  format="ascii">1.3457221721290610e-06  1.2840586470726906e-06  1.1160738246305433e-06  8.8583386326801644e-07  6.4778263395728367e-07  4.4951746374600158e-07  3.2143470851047337e-07  2.7469308428577229e-07  3.0421585354645685e-07  3.9288403063610662e-07  5.1535497460041042e-07  6.4207978157311423e-07  7.4441470999236550e-07  8.0049206315662074e-07  8.0000979493138464e-07  7.4573636621341959e-07  6.5093137681805170e-07  5.3406380692701350e-07  4.1334681612040623e-07  3.0299214659022398e-07  2.1167997971702250e-07  1.4278142576910943e-07  9.5655678710236692e-08  6.7449171989902771e-08  5.4902414116596021e-08  5.5720201652255372e-08  6.9192104195128672e-08  9.5965623087706459e-08  1.3708329571328999e-07  1.9253046191210508e-07  2.5963506109026014e-07  3.3181407238384855e-07  3.9838523192541168e-07  4.4620430231692553e-07  4.6330984817880385e-07  4.4347623562141773e-07  3.8939705365243055e-07  3.1240344833725266e-07  2.2848809314843045e-07  1.5266897721108328e-07  9.4625302219661966e-08  5.7450488901362989e-08  3.9221243874692642e-08  3.5547126076608877e-08  4.1405604456324773e-08  5.1872265361634501e-08  6.2385620726474058e-08  6.9190566017389707e-08  7.0011949162784571e-08  6.4564738690389647e-08  5.4515430984747587e-08  4.2820512629476320e-08  3.2681734523789533e-08  2.6458032864183993e-08  2.4661966800982795e-08  2.4412426117276411e-08  1.7384658199860676e-08  4.7949660342431060e-09  7.8087291939248877e-10  1.1583338201668924e-10  1.2270814738653360e-11  1.4118275545933710e-11  1.1334329243652957e-10  1.2250738554192816e-10  1.6411539500599901e-11  6.4463717787347515e-13  2.7786307212653843e-13  2.5309397736749120e-12  1.3583839156364250e-10  2.3465662665165396e-09  3.2655389627200434e-08  2.3900659619618459e-07  5.3368722722733158e-07  6.5394398485523211e-07  6.5485175060954043e-07  5.9348773856565475e-07  4.9882370832604037e-07  3.9245073807444416e-07  2.9065419976500851e-07  2.0368323893984754e-07  1.3621321532294821e-07  8.9021664758941653e-08  6.2914049024512772e-08  7.5690084114911598e-08  2.6725534767527349e-07  1.6096265827820696e-06  1.0808636134363485e-05  7.4580158069365235e-05  5.2278387816465219e-04  3.7218592117080635e-03  2.6895659829922341e-02  1.8292546793809661e-01  6.6007459308588323e-01  9.2728139101508700e-01  9.8351638671047636e-01  9.9571042461373527e-01  9.9869752524860134e-01  9.9951139818708756e-01  9.9976239249620191e-01  9.9984632312881971e-01  9.9986712991221294e-01  1.2943376308681801e-06  1.2356807522801950e-06  1.0757005306982452e-06  8.5593058706631286e-07  6.2793080020368684e-07  4.3711776587390568e-07  3.1285948880173157e-07  2.6632338649497124e-07  2.9313224856786230e-07  3.7724773864227223e-07  4.9457881604448354e-07  6.1682775550554066e-07  7.1640922459518606e-07  7.7211365890626647e-07  7.7374911944710177e-07  7.2365044102878267e-07  6.3427947178369233e-07  5.2321432531252340e-07  4.0791874985433917e-07  3.0211847066195812e-07  2.1428422868883403e-07  1.4780136521344567e-07  1.0218538865878700e-07  7.4793030805720665e-08  6.2550274019540245e-08  6.3266979281320576e-08  7.6234017847787219e-08  1.0200691961292625e-07  1.4148385478160815e-07  1.9452032495556138e-07  2.5841657877677366e-07  3.2675725326581862e-07  3.8928422514434122e-07  4.3350474103030081e-07  4.4817521602350023e-07  4.2759519837533178e-07  3.7456006358752196e-07  3.0002167571702127e-07  2.1927426479069966e-07  1.4660417286103506e-07  9.1170921018531897e-08  5.5848407479264667e-08  3.8726659927746320e-08  3.5534567413088596e-08  4.1388439837383062e-08  5.1505041185370249e-08  6.1481361224411710e-08  6.7738367156540214e-08  6.8164647178181446e-08  6.2582589199891097e-08  5.2678537010348525e-08  4.1340521604859864e-08  3.1644483085130292e-08  2.5820295117697541e-08  2.4336861062868973e-08  2.4632932370216675e-08  1.9189473565593855e-08  6.4915063692406033e-09  1.1815686046887069e-09  2.2146381319766613e-10  4.7459717338495420e-11  7.6190166943669721e-11  4.9633351910590621e-10  4.2801384405697390e-10  5.3001435279171343e-11  3.9087880062755535e-12  1.9276923184462476e-12  1.3779206260101031e-11  2.6531232173233508e-10  3.3956824312838015e-09  4.1811795244598493e-08  2.5948746915175758e-07  5.2671905361648673e-07  6.3239910473378486e-07  6.3191270828648653e-07  5.7351243547522010e-07  4.8353122593337270e-07  3.8228265275432915e-07  2.8524268281843856e-07  2.0221703692096419e-07  1.3772644966037668e-07  9.2572003429138378e-08  6.7552217156163641e-08  7.9466570509384447e-08  2.5952290053395577e-07  1.5125996552407454e-06  1.0022642315217461e-05  6.8337226958717045e-05  4.7170576446235182e-04  3.2845921666574346e-03  2.2834571729530125e-02  1.4950115085846793e-01  5.8766583195395217e-01  9.0379358105086116e-01  9.7670092048798685e-01  9.9332738866618586e-01  9.9768572155806790e-01  9.9900270504183020e-01  9.9945338684249085e-01  9.9961891542228765e-01  9.9966222697184004e-01  1.1517004849435436e-06  1.1012387176715604e-06  9.6313562103385408e-07  7.7213844071466095e-07  5.7200148994895916e-07  4.0213080197936518e-07  2.8893763790595298e-07  2.4345001197662514e-07  2.6308460231399148e-07  3.3470987148304856e-07  4.3768175207586672e-07  5.4720916185703600e-07  6.3872392507875595e-07  6.9294727410607524e-07  7.0010055120188031e-07  6.6140610516051353e-07  5.8716726271225614e-07  4.9249829116317866e-07  3.9274674769428291e-07  3.0022154992693185e-07  2.2272888382695290e-07  1.6360797862372843e-07  1.2272949959150740e-07  9.7969809568641691e-08  8.6727436226402483e-08  8.7088936664425375e-08  9.8363397204376652e-08  1.2089353465242390e-07  1.5524249166156351e-07  2.0098743918223112e-07  2.5544012739768149e-07  3.1272964466780776e-07  3.6382428335823401e-07  3.9804071519378042e-07  4.0607866714310360e-07  3.8361665500404202e-07  3.3365850190426305e-07  2.6606008219079864e-07  1.9416810669772688e-07  1.3024841804992052e-07  8.2029068790532986e-08  5.1777586854087285e-08  3.7620405908052965e-08  3.5624757041953729e-08  4.1314028396214296e-08  5.0329115687024136e-08  5.8737133550119588e-08  6.3462727743982700e-08  6.2842086528884496e-08  5.6970026554389815e-08  4.7553843734028611e-08  3.7261609619255733e-08  2.8803598222290832e-08  2.4049668515988166e-08  2.3334465165738426e-08  2.4748450082071615e-08  2.3018705165534052e-08  1.2907270422198801e-08  3.7925908299134234e-09  1.0585899680336745e-09  5.5226285726010209e-10  1.2217172534352951e-09  3.4607670262477429e-09  2.5746801711043388e-09  4.3462535193804912e-10  7.2620001743544598e-11  5.3777308116990569e-11  1.6442054351018419e-10  1.1233544638468887e-09  9.1247663106448092e-09  7.9001337330876188e-08  3.0305716017040147e-07  4.9668108688459213e-07  5.7068556174091764e-07  5.6769826602234541e-07  5.1764557156091184e-07  4.4069266069306975e-07  3.5381547041530937e-07  2.7029969571905261e-07  1.9871459330519378e-07  1.4310615629800164e-07  1.0426905232892594e-07  8.2905860165859027e-08  9.3071379952387843e-08  2.4295143615328730e-07  1.2627205550933872e-06  8.0041351466600406e-06  5.2640114102451111e-05  3.4739380387625987e-04  2.2692271437877616e-03  1.4348258468354066e-02  8.3481430508481419e-02  3.7737844814407873e-01  7.9618626492351419e-01  9.4476641168754194e-01  9.8123256621641908e-01  9.9229206237271050e-01  9.9611020317546251e-01  9.9761518566199059e-01  9.9822844302702296e-01  9.9839745388415813e-01  9.4826952702912013e-07  9.0908717761670412e-07  8.0125648043874703e-07  6.5050639145361955e-07  4.9001210846597183e-07  3.5074032321440292e-07  2.5461626768524229e-07  2.1201655432463653e-07  2.2249307585760735e-07  2.7678167290030766e-07  3.5905694955053265e-07  4.4960506389930732e-07  5.2837532121553171e-07  5.7914274900814999e-07  5.9304416796757420e-07  5.7000374921934245e-07  5.1743548923843469e-07  4.4698957571348407e-07  3.7090576226382933e-07  2.9927710563875882e-07  2.3870653710141979e-07  1.9219095828121955e-07  1.5984179010890712e-07  1.4005239186835063e-07  1.3074402345523164e-07  1.3034435399318888e-07  1.3824210110442497e-07  1.5462808550555513e-07  1.7981378226994633e-07  2.1324906012109769e-07  2.5253796484287050e-07  2.9282065364053006e-07  3.2695153415253296e-07  3.4682235047301134e-07  3.4575598959332493e-07  3.2116747410764095e-07  2.7614108347530396e-07  2.1883794225225347e-07  1.5979120190627088e-07  1.0840451155136439e-07  7.0389807705714802e-08  4.7158584502143153e-08  3.6894361160119917e-08  3.6177596382226686e-08  4.1183114451554894e-08  4.8252163507733039e-08  5.4205695985211743e-08  5.6722706280973901e-08  5.4751675053120121e-08  4.8699564646105634e-08  4.0207664080069896e-08  3.1549927958435701e-08  2.4874966368713467e-08  2.1542405207645669e-08  2.1688561751171567e-08  2.3973189932003471e-08  2.5387204349819839e-08  2.1855008331068755e-08  1.3468121894680335e-08  7.3561284175735648e-09  6.1648250060625214e-09  9.0265292289476529e-09  1.2635310743668812e-08  1.0628726402118200e-08  4.2096194691629215e-09  1.2576670014717129e-09  8.4046426045955794e-10  1.6352307092651387e-09  6.3896673914891680e-09  3.5564031464220576e-08  1.5098322891765498e-07  3.2108767459847410e-07  4.3356026246151916e-07  4.7859981897970471e-07  4.7467835832760496e-07  4.3677199552180353e-07  3.7848654495811672e-07  3.1256345132911525e-07  2.4933846130726619e-07  1.9562031453828690e-07  1.5465483288667063e-07  1.2700751043912776e-07  1.1298404717809023e-07  1.2273692656809610e-07  2.3449661221324500e-07  9.5928785257380706e-07  5.5407275865780662e-06  3.4242727704334469e-05  2.1044884439307205e-04  1.2512940708463414e-03  6.9957127864240676e-03  3.5484549700673634e-02  1.5829280794928616e-01  5.0232293074709933e-01  8.1738146537972634e-01  9.3206217033073624e-01  9.6857650211541202e-01  9.8263142916514423e-01  9.8867931187225344e-01  9.9127484552643652e-01  9.9200344608764202e-01  7.2316584985785307e-07  6.9583227958538443e-07  6.2005769183219531e-07  5.1261929948497516e-07  3.9587590977585667e-07  2.9170953055685253e-07  2.1668864790762863e-07  1.7974401955036772e-07  1.8207040533121029e-07  2.1817214487944627e-07  2.7733228154049630e-07  3.4552560601942770e-07  4.0802772924403348e-07  4.5250629949670535e-07  4.7171168319958674e-07  4.6469786839136132e-07  4.3608919519593145e-07  3.9386373093577080e-07  3.4671820804970165e-07  3.0196751925299323e-07  2.6440394706775515e-07  2.3608249815380264e-07  2.1680356422469502e-07  2.0502212933783029e-07  1.9888428921724393e-07  1.9707167106410899e-07  1.9919365869114999e-07  2.0562876837451527e-07  2.1691360803918540e-07  2.3291887636070297e-07  2.5210439658452113e-07  2.7114623584983656e-07  2.8520436503944526e-07  2.8898442853453042e-07  2.7843872463305683e-07  2.5249927692183314e-07  2.1395564925747042e-07  1.6884400197688824e-07  1.2448865571803019e-07  8.7127883649075772e-08  6.0269941922697362e-08  4.4399808421110674e-08  3.7797942186086309e-08  3.7697209432883924e-08  4.1138082675997395e-08  4.5405333398851350e-08  4.8284231918549992e-08  4.8329292560177983e-08  4.5104565911828985e-08  3.9226013321867217e-08  3.2105341942684740e-08  2.5459598985787223e-08  2.0767439266143474e-08  1.8851210338570513e-08  1.9672226332482350e-08  2.2324159201042231e-08  2.5183772248886397e-08  2.6346696072936594e-08  2.4785022276893433e-08  2.2225877436711792e-08  2.1876588586328203e-08  2.4182163337635687e-08  2.6617205500527616e-08  2.6263958388686442e-08  2.0772491473915946e-08  1.3373564192995277e-08  1.0623348489317229e-08  1.5158401225204032e-08  3.6249893393901554e-08  9.6913166070321121e-08  1.9522286428389176e-07  2.8651135592521740e-07  3.4595165602007248e-07  3.7208851171636503e-07  3.6955553154367278e-07  3.4527680739702117e-07  3.0780225140462579e-07  2.6594521777455089e-07  2.2711650960494159e-07  1.9624636472675889e-07  1.7551910598680133e-07  1.6483831299398957e-07  1.6350623295623522e-07  1.7712718500800992e-07  2.5469641446075081e-07  7.0657216133816802e-07  3.3867841598508219e-06  1.8997950886554258e-05  1.0643663863452131e-04  5.6723428954210233e-04  2.7975228805302583e-03  1.2539226924640434e-02  4.9501901611814739e-02  1.7088241244322397e-01  4.4045739494709685e-01  7.1466399020787374e-01  8.5516916031598811e-01  9.1639781749372928e-01  9.4377942859688591e-01  9.5550827199260169e-01  9.5876670838449995e-01  5.1255133628540388e-07  4.9555997151219185e-07  4.4807851828149705e-07  3.7972989102448100e-07  3.0386011196344969e-07  2.3423761398651715e-07  1.8200725636757643e-07  1.5385882352536300e-07  1.5156082282067337e-07  1.7238579281040177e-07  2.0998356981708491e-07  2.5563222118973922e-07  2.9995590224298517e-07  3.3494879133724360e-07  3.5574879546387152e-07  3.6148685951658038e-07  3.5488480411517109e-07  3.4085713116592885e-07  3.2476026058759035e-07  3.1090853155817337e-07  3.0168990172671627e-07  2.9734685110299763e-07  2.9635717728835799e-07  2.9627486184378436e-07  2.9477806611395031e-07  2.9055914412513731e-07  2.8371225166616235e-07  2.7548426644460669e-07  2.6754311480526717e-07  2.6110208292622133e-07  2.5623982636041837e-07  2.5164408903051553e-07  2.4488478880989242e-07  2.3319968141184124e-07  2.1459701396366337e-07  1.8886253362819663e-07  1.5796603598419153e-07  1.2556881719804570e-07  9.5796929473026649e-08  7.1870569816810025e-08  5.5248973306689066e-08  4.5600122440639328e-08  4.1396891949019643e-08  4.0658598087895164e-08  4.1470089562098381e-08  4.2228710643723898e-08  4.1769383129171831e-08  3.9481517283494520e-08  3.5392330740625865e-08  3.0123214307565743e-08  2.4677578663404617e-08  2.0121237955148608e-08  1.7277292770215566e-08  1.6537138392999351e-08  1.7817339713909278e-08  2.0630064284081031e-08  2.4227031640253880e-08  2.7822641020586949e-08  3.0935891451227231e-08  3.3713177415391541e-08  3.6749080931242262e-08  4.0215807789384635e-08  4.3529755562745137e-08  4.5753220976924143e-08  4.5873746036278636e-08  4.4155767481949700e-08  4.4975320477055785e-08  5.5539175354304060e-08  8.2656155482336733e-08  1.2682355408797760e-07  1.7732395889213204e-07  2.2182118413207384e-07  2.5312035198611150e-07  2.6847608649554304e-07  2.6861534721666869e-07  2.5707196605132299e-07  2.3929471585709578e-07  2.2130948215218253e-07  2.0834578609081985e-07  2.0381649838718957e-07  2.0877546860995967e-07  2.2192345905777071e-07  2.4063151482794235e-07  2.6541132040301940e-07  3.2126057312726894e-07  5.7122624427947804e-07  1.9267984434219798e-06  9.1843158307776977e-06  4.5950054809300123e-05  2.1868601831296326e-04  9.5954296022469519e-04  3.7993641175598364e-03  1.3486733282103954e-02  4.1798086841158891e-02  1.1346696336952554e-01  2.5614687885178583e-01  4.4726546686674601e-01  6.1474725681458420e-01  7.1601502344469425e-01  7.6384006351610156e-01  7.7759802748448459e-01  3.4151317304524624e-07  3.3216490957624085e-07  3.0593112201624946e-07  2.6788619187372767e-07  2.2526451303025886e-07  1.8576170165807561e-07  1.5578397309348093e-07  1.3926966198667519e-07  1.3731992296811387e-07  1.4845280266788578e-07  1.6920585730999246e-07  1.9496939066484615e-07  2.2102816270375035e-07  2.4368227288951737e-07  2.6113661811260639e-07  2.7381614877916798e-07  2.8396517440771903e-07  2.9469121137509303e-07  3.0880542305489238e-07  3.2780280678761361e-07  3.5120820299974120e-07  3.7643105278076490e-07  3.9924092456055035e-07  4.1487045917198499e-07  4.1948081113702867e-07  4.1142524754043126e-07  3.9172070023120306e-07  3.6351577727953162e-07  3.3087829556011644e-07  2.9751131367362055e-07  2.6589138435001746e-07  2.3700313555900271e-07  2.1059141434316706e-07  1.8574956947874972e-07  1.6162667935646164e-07  1.3800261574762310e-07  1.1549491407634957e-07  9.5301638867877183e-08  7.8621553247777486e-08  6.6077886907467188e-08  5.7459114015680951e-08  5.1874709438867235e-08  4.8162868633438029e-08  4.5275996757293525e-08  4.2469823387986958e-08  3.9309787446417453e-08  3.5612875135219360e-08  3.1412336926835089e-08  2.6944878810633554e-08  2.2611802339141679e-08  1.8887357408468503e-08  1.6202463877641621e-08  1.4862256194868075e-08  1.5032594209257629e-08  1.6776679197183621e-08  2.0089312294290122e-08  2.4891922823316022e-08  3.0997884076302515e-08  3.8085893652493054e-08  4.5694469678040351e-08  5.3211118703832363e-08  5.9884562347556977e-08  6.4958656113446791e-08  6.7938967658862298e-08  6.8911846702251669e-08  6.8961952399896394e-08  7.0588947423960230e-08  7.7218291032976032e-08  9.1053085506248688e-08  1.1119108740568028e-07  1.3412573286045871e-07  1.5554324528766448e-07  1.7186142644414142e-07  1.8121190881626186e-07  1.8391739023854828e-07  1.8247672887784093e-07  1.8100048591962023e-07  1.8424496717664920e-07  1.9649600404372210e-07  2.2047570500091999e-07  2.5637239823213756e-07  3.0123271160158736e-07  3.4934485190333512e-07  3.9522859199863802e-07  4.4561975914461961e-07  5.7255572584684537e-07  1.1647491451482116e-06  4.0779801371798370e-06  1.7467793740624162e-05  7.3944104021754327e-05  2.8969573517042142e-04  1.0303328710853307e-03  3.2722448864869486e-03  9.2493028148215913e-03  2.3016920699390320e-02  5.0457780426126711e-02  9.8084740733414666e-02  1.6259536430569904e-01  2.2551421998985946e-01  2.6874428905233921e-01  2.8383995417923569e-01  2.2155209525900965e-07  2.1683251085142721e-07  2.0382508752820179e-07  1.8565799101134071e-07  1.6653595713091919e-07  1.5053564082943029e-07  1.4053123353354590e-07  1.3762911921709246e-07  1.4121253137971958e-07  1.4943146230797011e-07  1.5990342877185490e-07  1.7046619419075833e-07  1.7987531781715587e-07  1.8830247427711378e-07  1.9745996102989040e-07  2.1025866333610151e-07  2.3007163442736136e-07  2.5979634508303550e-07  3.0091142083783298e-07  3.5266132931385920e-07  4.1149554640334527e-07  4.7099900496150528e-07  5.2266363072803369e-07  5.5769460347122950e-07  5.6947677094077008e-07  5.5567718696737290e-07  5.1888657267976174e-07  4.6547021637968769e-07  4.0333853049929429e-07  3.3980115441066441e-07  2.8029408446330672e-07  2.2807183393819122e-07  1.8452129670659505e-07  1.4971539377287300e-07  1.2296448350060343e-07  1.0323808555290541e-07  8.9393038361982155e-08  8.0215848390112247e-08  7.4375954957667397e-08  7.0432226187900208e-08  6.6983397953872160e-08  6.2928057259221597e-08  5.7694870535249271e-08  5.1304072512250054e-08  4.4224888623788651e-08  3.7113816989516070e-08  3.0567126021649281e-08  2.4980855570093885e-08  2.0531916405947949e-08  1.7234558922063059e-08  1.5018604963654816e-08  1.3808549005189589e-08  1.3610950211619314e-08  1.4602621381473335e-08  1.7169470379647017e-08  2.1832670326008081e-08  2.9044590229073451e-08  3.8911544540155509e-08  5.0953730670385689e-08  6.4018287772249209e-08  7.6421259231003718e-08  8.6320645209962122e-08  9.2231204316651660e-08  9.3516577182573773e-08  9.0688970468638312e-08  8.5412094057020876e-08  8.0150797202705843e-08  7.7435911549662378e-08  7.8924152395189490e-08  8.4748192399499762e-08  9.3546279963994250e-08  1.0311390263661277e-07  1.1136555334016840e-07  1.1728052630781690e-07  1.2155900112222650e-07  1.2679951644852604e-07  1.3716617805799982e-07  1.5764944203313545e-07  1.9302249392888874e-07  2.4649190103360507e-07  3.1806393008369267e-07  4.0300254542553407e-07  4.9136762437720288e-07  5.7024192561477376e-07  6.3165970477859964e-07  6.9746560122221246e-07  9.1219723218633639e-07  1.9110955781312245e-06  6.1866403773295818e-06  2.2593332166332443e-05  7.9264030565787198e-05  2.5428097663821237e-04  7.3560152528933146e-04  1.9027625001377965e-03  4.3896302396718954e-03  9.0486596558986554e-03  1.6505994294603064e-02  2.6405104451916333e-02  3.6905613480231317e-02  4.5016550598591172e-02  4.8063422115252774e-02  1.5250379089725560e-07  1.4970315768332719e-07  1.4259748089487248e-07  1.3447075250696705e-07  1.2912898766123195e-07  1.2934434932364662e-07  1.3587696346036007e-07  1.4733326050720397e-07  1.6074068859038607e-07  1.7253809293831803e-07  1.7968981432507235e-07  1.8070895788069892e-07  1.7639277251214180e-07  1.7004035242165068e-07  1.6699034983177713e-07  1.7355429926427496e-07  1.9566501218309741e-07  2.3758424567040094e-07  3.0081737061587147e-07  3.8320105886573556e-07  4.7820324480513716e-07  5.74825873830