<?xml version="1.0"?>
<VTKFile type="UnstructuredGrid"  version="0.1"  >
<UnstructuredGrid>
<Piece  NumberOfPoints="20201" NumberOfCells="40000">
<Points>
<DataArray  type="Float64"  NumberOfComponents="3"  format="ascii">0 0 0  2 0 0  4 0 0  6 0 0  8 0 0  10 0 0  12 0 0  14 0 0  16 0 0  18 0 0  20 0 0  22 0 0  24 0 0  26 0 0  28 0 0  30 0 0  32 0 0  34 0 0  36 0 0  38 0 0  40 0 0  42 0 0  44 0 0  46 0 0  48 0 0  50 0 0  52 0 0  54 0 0  56 0 0  58 0 0  60 0 0  62 0 0  64 0 0  66 0 0  68 0 0  70 0 0  72 0 0  74 0 0  76 0 0  78 0 0  80 0 0  82 0 0  84 0 0  86 0 0  88 0 0  90 0 0  92 0 0  94 0 0  96 0 0  98 0 0  100 0 0  102 0 0  104 0 0  106 0 0  108 0 0  110 0 0  112 0 0  114 0 0  116 0 0  118 0 0  120 0 0  122 0 0  124 0 0  126 0 0  128 0 0  130 0 0  132 0 0  134 0 0  136 0 0  138 0 0  140 0 0  142 0 0  144 0 0  146 0 0  148 0 0  150 0 0  152 0 0  154 0 0  156 0 0  158 0 0  160 0 0  162 0 0  164 0 0  166 0 0  168 0 0  170 0 0  172 0 0  174 0 0  176 0 0  178 0 0  180 0 0  182 0 0  184 0 0  186 0 0  188 0 0  190 0 0  192 0 0  194 0 0  196 0 0  198 0 0  200 0 0  0 2 0  2 2 0  4 2 0  6 2 0  8 2 0  10 2 0  12 2 0  14 2 0  16 2 0  18 2 0  20 2 0  22 2 0  24 2 0  26 2 0  28 2 0  30 2 0  32 2 0  34 2 0  36 2 0  38 2 0  40 2 0  42 2 0  44 2 0  46 2 0  48 2 0  50 2 0  52 2 0  54 2 0  56 2 0  58 2 0  60 2 0  62 2 0  64 2 0  66 2 0  68 2 0  70 2 0  72 2 0  74 2 0  76 2 0  78 2 0  80 2 0  82 2 0  84 2 0  86 2 0  88 2 0  90 2 0  92 2 0  94 2 0  96 2 0  98 2 0  100 2 0  102 2 0  104 2 0  106 2 0  108 2 0  110 2 0  112 2 0  114 2 0  116 2 0  118 2 0  120 2 0  122 2 0  124 2 0  126 2 0  128 2 0  130 2 0  132 2 0  134 2 0  136 2 0  138 2 0  140 2 0  142 2 0  144 2 0  146 2 0  148 2 0  150 2 0  152 2 0  154 2 0  156 2 0  158 2 0  160 2 0  162 2 0  164 2 0  166 2 0  168 2 0  170 2 0  172 2 0  174 2 0  176 2 0  178 2 0  180 2 0  182 2 0  184 2 0  186 2 0  188 2 0  190 2 0  192 2 0  194 2 0  196 2 0  198 2 0  200 2 0  0 4 0  2 4 0  4 4 0  6 4 0  8 4 0  10 4 0  12 4 0  14 4 0  16 4 0  18 4 0  20 4 0  22 4 0  24 4 0  26 4 0  28 4 0  30 4 0  32 4 0  34 4 0  36 4 0  38 4 0  40 4 0  42 4 0  44 4 0  46 4 0  48 4 0  50 4 0  52 4 0  54 4 0  56 4 0  58 4 0  60 4 0  62 4 0  64 4 0  66 4 0  68 4 0  70 4 0  72 4 0  74 4 0  76 4 0  78 4 0  80 4 0  82 4 0  84 4 0  86 4 0  88 4 0  90 4 0  92 4 0  94 4 0  96 4 0  98 4 0  100 4 0  102 4 0  104 4 0  106 4 0  108 4 0  110 4 0  112 4 0  114 4 0  116 4 0  118 4 0  120 4 0  122 4 0  124 4 0  126 4 0  128 4 0  130 4 0  132 4 0  134 4 0  136 4 0  138 4 0  140 4 0  142 4 0  144 4 0  146 4 0  148 4 0  150 4 0  152 4 0  154 4 0  156 4 0  158 4 0  160 4 0  162 4 0  164 4 0  166 4 0  168 4 0  170 4 0  172 4 0  174 4 0  176 4 0  178 4 0  180 4 0  182 4 0  184 4 0  186 4 0  188 4 0  190 4 0  192 4 0  194 4 0  196 4 0  198 4 0  200 4 0  0 6 0  2 6 0  4 6 0  6 6 0  8 6 0  10 6 0  12 6 0  14 6 0  16 6 0  18 6 0  20 6 0  22 6 0  24 6 0  26 6 0  28 6 0  30 6 0  32 6 0  34 6 0  36 6 0  38 6 0  40 6 0  42 6 0  44 6 0  46 6 0  48 6 0  50 6 0  52 6 0  54 6 0  56 6 0  58 6 0  60 6 0  62 6 0  64 6 0  66 6 0  68 6 0  70 6 0  72 6 0  74 6 0  76 6 0  78 6 0  80 6 0  82 6 0  84 6 0  86 6 0  88 6 0  90 6 0  92 6 0  94 6 0  96 6 0  98 6 0  100 6 0  102 6 0  104 6 0  106 6 0  108 6 0  110 6 0  112 6 0  114 6 0  116 6 0  118 6 0  120 6 0  122 6 0  124 6 0  126 6 0  128 6 0  130 6 0  132 6 0  134 6 0  136 6 0  138 6 0  140 6 0  142 6 0  144 6 0  146 6 0  148 6 0  150 6 0  152 6 0  154 6 0  156 6 0  158 6 0  160 6 0  162 6 0  164 6 0  166 6 0  168 6 0  170 6 0  172 6 0  174 6 0  176 6 0  178 6 0  180 6 0  182 6 0  184 6 0  186 6 0  188 6 0  190 6 0  192 6 0  194 6 0  196 6 0  198 6 0  200 6 0  0 8 0  2 8 0  4 8 0  6 8 0  8 8 0  10 8 0  12 8 0  14 8 0  16 8 0  18 8 0  20 8 0  22 8 0  24 8 0  26 8 0  28 8 0  30 8 0  32 8 0  34 8 0  36 8 0  38 8 0  40 8 0  42 8 0  44 8 0  46 8 0  48 8 0  50 8 0  52 8 0  54 8 0  56 8 0  58 8 0  60 8 0  62 8 0  64 8 0  66 8 0  68 8 0  70 8 0  72 8 0  74 8 0  76 8 0  78 8 0  80 8 0  82 8 0  84 8 0  86 8 0  88 8 0  90 8 0  92 8 0  94 8 0  96 8 0  98 8 0  100 8 0  102 8 0  104 8 0  106 8 0  108 8 0  110 8 0  112 8 0  114 8 0  116 8 0  118 8 0  120 8 0  122 8 0  124 8 0  126 8 0  128 8 0  130 8 0  132 8 0  134 8 0  136 8 0  138 8 0  140 8 0  142 8 0  144 8 0  146 8 0  148 8 0  150 8 0  152 8 0  154 8 0  156 8 0  158 8 0  160 8 0  162 8 0  164 8 0  166 8 0  168 8 0  170 8 0  172 8 0  174 8 0  176 8 0  178 8 0  180 8 0  182 8 0  184 8 0  186 8 0  188 8 0  190 8 0  192 8 0  194 8 0  196 8 0  198 8 0  200 8 0  0 10 0  2 10 0  4 10 0  6 10 0  8 10 0  10 10 0  12 10 0  14 10 0  16 10 0  18 10 0  20 10 0  22 10 0  24 10 0  26 10 0  28 10 0  30 10 0  32 10 0  34 10 0  36 10 0  38 10 0  40 10 0  42 10 0  44 10 0  46 10 0  48 10 0  50 10 0  52 10 0  54 10 0  56 10 0  58 10 0  60 10 0  62 10 0  64 10 0  66 10 0  68 10 0  70 10 0  72 10 0  74 10 0  76 10 0  78 10 0  80 10 0  82 10 0  84 10 0  86 10 0  88 10 0  90 10 0  92 10 0  94 10 0  96 10 0  98 10 0  100 10 0  102 10 0  104 10 0  106 10 0  108 10 0  110 10 0  112 10 0  114 10 0  116 10 0  118 10 0  120 10 0  122 10 0  124 10 0  126 10 0  128 10 0  130 10 0  132 10 0  134 10 0  136 10 0  138 10 0  140 10 0  142 10 0  144 10 0  146 10 0  148 10 0  150 10 0  152 10 0  154 10 0  156 10 0  158 10 0  160 10 0  162 10 0  164 10 0  166 10 0  168 10 0  170 10 0  172 10 0  174 10 0  176 10 0  178 10 0  180 10 0  182 10 0  184 10 0  186 10 0  188 10 0  190 10 0  192 10 0  194 10 0  196 10 0  198 10 0  200 10 0  0 12 0  2 12 0  4 12 0  6 12 0  8 12 0  10 12 0  12 12 0  14 12 0  16 12 0  18 12 0  20 12 0  22 12 0  24 12 0  26 12 0  28 12 0  30 12 0  32 12 0  34 12 0  36 12 0  38 12 0  40 12 0  42 12 0  44 12 0  46 12 0  48 12 0  50 12 0  52 12 0  54 12 0  56 12 0  58 12 0  60 12 0  62 12 0  64 12 0  66 12 0  68 12 0  70 12 0  72 12 0  74 12 0  76 12 0  78 12 0  80 12 0  82 12 0  84 12 0  86 12 0  88 12 0  90 12 0  92 12 0  94 12 0  96 12 0  98 12 0  100 12 0  102 12 0  104 12 0  106 12 0  108 12 0  110 12 0  112 12 0  114 12 0  116 12 0  118 12 0  120 12 0  122 12 0  124 12 0  126 12 0  128 12 0  130 12 0  132 12 0  134 12 0  136 12 0  138 12 0  140 12 0  142 12 0  144 12 0  146 12 0  148 12 0  150 12 0  152 12 0  154 12 0  156 12 0  158 12 0  160 12 0  162 12 0  164 12 0  166 12 0  168 12 0  170 12 0  172 12 0  174 12 0  176 12 0  178 12 0  180 12 0  182 12 0  184 12 0  186 12 0  188 12 0  190 12 0  192 12 0  194 12 0  196 12 0  198 12 0  200 12 0  0 14 0  2 14 0  4 14 0  6 14 0  8 14 0  10 14 0  12 14 0  14 14 0  16 14 0  18 14 0  20 14 0  22 14 0  24 14 0  26 14 0  28 14 0  30 14 0  32 14 0  34 14 0  36 14 0  38 14 0  40 14 0  42 14 0  44 14 0  46 14 0  48 14 0  50 14 0  52 14 0  54 14 0  56 14 0  58 14 0  60 14 0  62 14 0  64 14 0  66 14 0  68 14 0  70 14 0  72 14 0  74 14 0  76 14 0  78 14 0  80 14 0  82 14 0  84 14 0  86 14 0  88 14 0  90 14 0  92 14 0  94 14 0  96 14 0  98 14 0  100 14 0  102 14 0  104 14 0  106 14 0  108 14 0  110 14 0  112 14 0  114 14 0  116 14 0  118 14 0  120 14 0  122 14 0  124 14 0  126 14 0  128 14 0  130 14 0  132 14 0  134 14 0  136 14 0  138 14 0  140 14 0  142 14 0  144 14 0  146 14 0  148 14 0  150 14 0  152 14 0  154 14 0  156 14 0  158 14 0  160 14 0  162 14 0  164 14 0  166 14 0  168 14 0  170 14 0  172 14 0  174 14 0  176 14 0  178 14 0  180 14 0  182 14 0  184 14 0  186 14 0  188 14 0  190 14 0  192 14 0  194 14 0  196 14 0  198 14 0  200 14 0  0 16 0  2 16 0  4 16 0  6 16 0  8 16 0  10 16 0  12 16 0  14 16 0  16 16 0  18 16 0  20 16 0  22 16 0  24 16 0  26 16 0  28 16 0  30 16 0  32 16 0  34 16 0  36 16 0  38 16 0  40 16 0  42 16 0  44 16 0  46 16 0  48 16 0  50 16 0  52 16 0  54 16 0  56 16 0  58 16 0  60 16 0  62 16 0  64 16 0  66 16 0  68 16 0  70 16 0  72 16 0  74 16 0  76 16 0  78 16 0  80 16 0  82 16 0  84 16 0  86 16 0  88 16 0  90 16 0  92 16 0  94 16 0  96 16 0  98 16 0  100 16 0  102 16 0  104 16 0  106 16 0  108 16 0  110 16 0  112 16 0  114 16 0  116 16 0  118 16 0  120 16 0  122 16 0  124 16 0  126 16 0  128 16 0  130 16 0  132 16 0  134 16 0  136 16 0  138 16 0  140 16 0  142 16 0  144 16 0  146 16 0  148 16 0  150 16 0  152 16 0  154 16 0  156 16 0  158 16 0  160 16 0  162 16 0  164 16 0  166 16 0  168 16 0  170 16 0  172 16 0  174 16 0  176 16 0  178 16 0  180 16 0  182 16 0  184 16 0  186 16 0  188 16 0  190 16 0  192 16 0  194 16 0  196 16 0  198 16 0  200 16 0  0 18 0  2 18 0  4 18 0  6 18 0  8 18 0  10 18 0  12 18 0  14 18 0  16 18 0  18 18 0  20 18 0  22 18 0  24 18 0  26 18 0  28 18 0  30 18 0  32 18 0  34 18 0  36 18 0  38 18 0  40 18 0  42 18 0  44 18 0  46 18 0  48 18 0  50 18 0  52 18 0  54 18 0  56 18 0  58 18 0  60 18 0  62 18 0  64 18 0  66 18 0  68 18 0  70 18 0  72 18 0  74 18 0  76 18 0  78 18 0  80 18 0  82 18 0  84 18 0  86 18 0  88 18 0  90 18 0  92 18 0  94 18 0  96 18 0  98 18 0  100 18 0  102 18 0  104 18 0  106 18 0  108 18 0  110 18 0  112 18 0  114 18 0  116 18 0  118 18 0  120 18 0  122 18 0  124 18 0  126 18 0  128 18 0  130 18 0  132 18 0  134 18 0  136 18 0  138 18 0  140 18 0  142 18 0  144 18 0  146 18 0  148 18 0  150 18 0  152 18 0  154 18 0  156 18 0  158 18 0  160 18 0  162 18 0  164 18 0  166 18 0  168 18 0  170 18 0  172 18 0  174 18 0  176 18 0  178 18 0  180 18 0  182 18 0  184 18 0  186 18 0  188 18 0  190 18 0  192 18 0  194 18 0  196 18 0  198 18 0  200 18 0  0 20 0  2 20 0  4 20 0  6 20 0  8 20 0  10 20 0  12 20 0  14 20 0  16 20 0  18 20 0  20 20 0  22 20 0  24 20 0  26 20 0  28 20 0  30 20 0  32 20 0  34 20 0  36 20 0  38 20 0  40 20 0  42 20 0  44 20 0  46 20 0  48 20 0  50 20 0  52 20 0  54 20 0  56 20 0  58 20 0  60 20 0  62 20 0  64 20 0  66 20 0  68 20 0  70 20 0  72 20 0  74 20 0  76 20 0  78 20 0  80 20 0  82 20 0  84 20 0  86 20 0  88 20 0  90 20 0  92 20 0  94 20 0  96 20 0  98 20 0  100 20 0  102 20 0  104 20 0  106 20 0  108 20 0  110 20 0  112 20 0  114 20 0  116 20 0  118 20 0  120 20 0  122 20 0  124 20 0  126 20 0  128 20 0  130 20 0  132 20 0  134 20 0  136 20 0  138 20 0  140 20 0  142 20 0  144 20 0  146 20 0  148 20 0  150 20 0  152 20 0  154 20 0  156 20 0
[...]
<PointData  Scalars="f_271-3"> 
<DataArray  type="Float64"  Name="f_271-3"  format="ascii">6.5778173448869601e-11  6.3650098161439534e-11  5.7739980554533566e-11  4.9329164405038462e-11  4.0141413750067725e-11  3.1895436014938491e-11  2.5923533218443271e-11  2.2947113152176226e-11  2.3023208835884603e-11  2.5625577043313338e-11  2.9812010103921055e-11  3.4438885351119703e-11  3.8391062815019689e-11  4.0791274684178805e-11  4.1147534356354506e-11  3.9404704489002187e-11  3.5892011192754902e-11  3.1191347219081771e-11  2.5974028873958142e-11  2.0855449209177678e-11  1.6300588942840723e-11  1.2590199176925497e-11  9.8384167125129587e-12  8.0420911685584182e-12  7.1394464695942457e-12  7.0584700413378429e-12  7.7416465281248802e-12  9.1418548187184024e-12  1.1193062581007595e-11  1.3767619652084265e-11  1.6638248911917072e-11  1.9465474555985277e-11  2.1827425842076236e-11  2.3296236647693772e-11  2.3544941303214411e-11  2.2448865429040756e-11  2.0138600682407840e-11  1.6976412748350299e-11  1.3460248996584110e-11  1.0092164741237191e-11  7.2616129585657774e-12  5.1813080237511301e-12  3.8843045243227189e-12  3.2647364182878385e-12  3.1351383614289814e-12  3.2801390802587402e-12  3.4988174775349144e-12  3.6357175012564675e-12  3.6008423303219750e-12  3.3760694042556397e-12  3.0039946133155216e-12  2.5550356500303091e-12  2.0632450894538027e-12  1.4196771579581282e-12  5.2086278925551228e-13  4.7555724503702488e-14  1.7093878837525069e-15  1.5759342875044685e-16  1.3139641045984142e-17  1.7764675904934325e-18  2.6701383233145369e-18  9.5895125572486582e-17  5.6799627421198055e-16  2.0753613935766742e-16  1.2816950067047724e-17  9.2449301755538066e-20  8.1344262300235840e-20  2.2657330745242202e-19  4.7683624357533119e-18  6.6920176322055557e-17  2.0627038998687097e-15  3.1193685897642618e-14  1.2078265633938231e-12  1.0869735712422370e-11  2.3806286829382355e-11  2.8143141994008644e-11  2.7104781765199380e-11  2.6055687264241725e-11  3.9719003995270440e-11  1.5734868134472329e-10  9.8072896093822351e-10  6.6153936429775474e-09  4.5208606712645623e-08  3.1070473354289006e-07  2.1472142643940673e-06  1.4934422853534783e-05  1.0468105801679796e-04  7.4078206825733430e-04  5.3007299951623559e-03  3.8286671878393692e-02  2.4720375885619525e-01  7.4625730430615345e-01  9.4982360294253920e-01  9.8912650653152190e-01  9.9742037768833636e-01  9.9932858701289451e-01  9.9979986875378413e-01  9.9992732867689371e-01  9.9996588021017796e-01  9.9997848554547386e-01  9.9998155879682249e-01  6.3884412580543159e-11  6.1830064746068128e-11  5.6122709903865402e-11  4.7994691695217660e-11  3.9106016474768761e-11  3.1115305259066113e-11  2.5312671388258745e-11  2.2401859047047127e-11  2.2446244055433328e-11  2.4944768447272696e-11  2.8991918886455607e-11  3.3484321721888692e-11  3.7342994702354199e-11  3.9716360540060908e-11  4.0123722409643404e-11  3.8506258968993914e-11  3.5177340464172754e-11  3.0695905057995328e-11  2.5708797673316260e-11  2.0809902210293179e-11  1.6448172441646053e-11  1.2894373141313928e-11  1.0257846131803060e-11  8.5343016064085707e-12  7.6628803963690951e-12  7.5733068057265572e-12  8.2099889947866361e-12  9.5279849855954914e-12  1.1464445875855297e-11  1.3897154332202725e-11  1.6607839235372454e-11  1.9270336554230044e-11  2.1479773648830674e-11  2.2826531279924606e-11  2.2999171230993803e-11  2.1881554344116733e-11  1.9603007582074692e-11  1.6514798550221082e-11  1.3097259261768266e-11  9.8331252127229532e-12  7.0955392549896135e-12  5.0868011887652656e-12  3.8360084829920796e-12  3.2386397973027683e-12  3.1120487011396423e-12  3.2474360674453598e-12  3.4508363513237105e-12  3.5730255254330440e-12  3.5285983841448630e-12  3.3017867777089523e-12  2.9353560955299809e-12  2.4990585677517156e-12  2.0301233162954182e-12  1.4362412875173166e-12  5.8708140227884246e-13  6.5300279222281607e-14  2.8507247719356996e-15  2.5708993518568757e-16  2.6084511646540158e-17  1.7366206445862578e-18  2.0314165119055769e-17  6.4885849158644014e-16  3.6256562624899169e-15  1.2179777681708392e-15  5.5031309714211017e-17  1.9782107742320811e-18  -4.5080408478189983e-20  7.5858779390493919e-19  9.0939563060967938e-18  1.2416443449257239e-16  2.8967204660812386e-15  4.7424844524688642e-14  1.5056661385003659e-12  1.1665218247251398e-11  2.3762706790437313e-11  2.7596771541499042e-11  2.6518056607182935e-11  2.5511652722640294e-11  3.8653209565319330e-11  1.5134329458396368e-10  9.3756166444615139e-10  6.2982084793169326e-09  4.2856966283582641e-08  2.9306626453695300e-07  2.0129948713736624e-06  1.3894727818100644e-05  9.6443099290267995e-05  6.7353600864905063e-04  4.7295744446606454e-03  3.3107469080680491e-02  2.1246873920568163e-01  6.9978450256017422e-01  9.3741478443657955e-01  9.8585565365889805e-01  9.9641867104211657e-01  9.9897588330778764e-01  9.9965468681382819e-01  9.9985648698409779e-01  9.9992400130928005e-01  9.9994812289760693e-01  9.9995431511412003e-01  5.8537503905285654e-11  5.6690052357862080e-11  5.1552302105018912e-11  4.4220484529643609e-11  3.6176892791094878e-11  2.8911660081614291e-11  2.3595264674640802e-11  2.0879641222983148e-11  2.0843487670748004e-11  2.3054485304222940e-11  2.6709239146410207e-11  3.0817769153099959e-11  3.4404217337990299e-11  3.6691635110191985e-11  3.7233919758046612e-11  3.5964630644067959e-11  3.3154636581905021e-11  2.9299338169733750e-11  2.4976486553262378e-11  2.0717920261572903e-11  1.6924898941122818e-11  1.3836803441823007e-11  1.1546033472445996e-11  1.0042067632930713e-11  9.2645792397781585e-12  9.1474944465965460e-12  9.6414169796839310e-12  1.0709587615443492e-11  1.2300991620974317e-11  1.4311840561468230e-11  1.6552060303596139e-11  1.8735065042284092e-11  2.0504917352046423e-11  2.1503361503149944e-11  2.1461742269986304e-11  2.0286442617923434e-11  1.8101570755412806e-11  1.5225984196539536e-11  1.2089390933790575e-11  9.1195594869576907e-12  6.6435359827021282e-12  4.8344403492853728e-12  3.7106279028469100e-12  3.1719579327841377e-12  3.0500439832764966e-12  3.1552363820752814e-12  3.3135956527452087e-12  3.3935766431635072e-12  3.3225132017523611e-12  3.0908417859392334e-12  2.7412515716460152e-12  2.3407660547740504e-12  1.9324727812342011e-12  1.4624214496989371e-12  7.7601048109471917e-13  1.5299323748347703e-13  1.0843163768970162e-14  1.2103376775116405e-15  2.0412979591133811e-16  1.2457922627034994e-16  5.1184252122204966e-16  9.3335331910825091e-15  3.8942282664213690e-14  1.1457525822533991e-14  5.5051032227930777e-16  5.5972151135697786e-18  4.4566054828375470e-18  5.5716019649352678e-18  5.4840620404085223e-17  4.5264516655410800e-16  8.0025041547680199e-15  1.3971741017561274e-13  2.7211615721797545e-12  1.3697555914244103e-11  2.3328397863839225e-11  2.5970105134200375e-11  2.4845720014261639e-11  2.3985925395341984e-11  3.5710584138639736e-11  1.3483455839065687e-10  8.1941457258260568e-10  5.4358481244145495e-09  3.6516699358711394e-08  2.4599314665954641e-07  1.6592539201996025e-06  1.1197549967256396e-05  7.5510901359108798e-05  5.0750947244533791e-04  3.3780981156422410e-03  2.1892955923099006e-02  1.3312030093026411e-01  5.3900632334697807e-01  8.8488554171586775e-01  9.7161671838317942e-01  9.9184384422204919e-01  9.9724645060879769e-01  9.9889644255765875e-01  9.9946243599791917e-01  9.9967929035632463e-01  9.9976497071613624e-01  9.9978811044605542e-01  5.0649160072421596e-11  4.9103301811829500e-11  4.4797676084213215e-11  3.8634295040419552e-11  3.1840095476317254e-11  2.5660143816490541e-11  2.1086951128613104e-11  1.8690262167609396e-11  1.8563564624182843e-11  2.0368651998459800e-11  2.3448055973700584e-11  2.6978089398809382e-11  3.0138000106324789e-11  3.2267266239675796e-11  3.2979227743744816e-11  3.2204965978011807e-11  3.0159941836360780e-11  2.7250096581672528e-11  2.3951542118431804e-11  2.0700659248462644e-11  1.7820708331239702e-11  1.5494588608004219e-11  1.3778690344427428e-11  1.2643468827706972e-11  1.2022667768657797e-11  1.1854157304365249e-11  1.2100249947038659e-11  1.2742932917063763e-11  1.3757884691239380e-11  1.5078388324743933e-11  1.6564687335464545e-11  1.7994749185205360e-11  1.9087661800692964e-11  1.9560380560421836e-11  1.9204050090561650e-11  1.7953386111384852e-11  1.5919671649189031e-11  1.3369681340312604e-11  1.0655588472517859e-11  8.1226782171972336e-12  6.0298019778554674e-12  4.5077480738286102e-12  3.5604231698914272e-12  3.0960244300722870e-12  2.9692556658539041e-12  3.0205301868860886e-12  3.1065935593046874e-12  3.1221850646139283e-12  3.0127216272387767e-12  2.7764697084073006e-12  2.4544272697154804e-12  2.1074613708230012e-12  1.7809028674921920e-12  1.4570730495675816e-12  1.0192599039349343e-12  4.2803511244139813e-13  7.9737416565293819e-14  1.0618654725497705e-14  2.1799546125429553e-15  1.8186461885751192e-15  1.5497535632543197e-14  1.2890448970647755e-13  2.7078454197999664e-13  9.3827584358559025e-14  5.9141733320074039e-15  5.3726745350175091e-16  8.1256027258054611e-17  1.0310449461311025e-16  4.0710418340779434e-16  3.5227294493705269e-15  3.5416601601056047e-14  6.1149987697146836e-13  5.5790520635711707e-12  1.5679813769457219e-11  2.1943036581327360e-11  2.3370606367766824e-11  2.2340902585681182e-11  2.1769618370988901e-11  3.1567598301161039e-11  1.1175340566515998e-10  6.5554915448011557e-10  4.2553353754136909e-09  2.7980550629293126e-08  1.8388678147035817e-07  1.2039891096775751e-06  7.8329349285482155e-06  5.0436895588778407e-05  3.1932129954240256e-04  1.9646820047085622e-03  1.1538312919269187e-02  6.2318753355115261e-02  2.8884390643613794e-01  7.2244810846125485e-01  9.2434852252665001e-01  9.7532051981389523e-01  9.9057293713256611e-01  9.9571239823020263e-01  9.9768630733980834e-01  9.9851550406085254e-01  9.9886166016911582e-01  9.9895736919192046e-01  4.1468851660851170e-11  4.0267855041419657e-11  3.6917001036705339e-11  3.2103853614506660e-11  2.6770296220935897e-11  2.1882601100854534e-11  1.8223774747559965e-11  1.6257682574023411e-11  1.6080726545583145e-11  1.7450450470316320e-11  1.9869826466158873e-11  2.2706092212981790e-11  2.5323912169792488e-11  2.7209805944005815e-11  2.8062219256191244e-11  2.7826433642768316e-11  2.6668115291218467e-11  2.4898239852050066e-11  2.2876105896660343e-11  2.0920033298949920e-11  1.9247805246522135e-11  1.7956319831698317e-11  1.7037693233513035e-11  1.6420065308289767e-11  1.6016484591833297e-11  1.5764920577145535e-11  1.5646847365452848e-11  1.5679956464619942e-11  1.5889808393185394e-11  1.6272523422389736e-11  1.6763844449824324e-11  1.7228491859942978e-11  1.7477946189103476e-11  1.7315343553453941e-11  1.6594984877204934e-11  1.5275226167455727e-11  1.3442627424711152e-11  1.1295067747630047e-11  9.0888041748688949e-12  7.0702337982826636e-12  5.4183726483769957e-12  4.2161777960054138e-12  3.4535901084926041e-12  3.0522549305187516e-12  2.8977091957131237e-12  2.8687061526869658e-12  2.8596920144064969e-12  2.7962283919314234e-12  2.6434001359773187e-12  2.4062230256592294e-12  2.1211123887354898e-12  1.8388551475555857e-12  1.6008254169587084e-12  1.4108785310114362e-12  1.2103562112780516e-12  8.9080333857982997e-13  4.6845341331945623e-13  1.9190857953705855e-13  1.0802478435317017e-13  1.3423477731328046e-13  3.3818656455773918e-13  8.1090600746147007e-13  1.0282084346808802e-12  5.6083758168391235e-13  9.8702862302605428e-14  8.0064759102225257e-15  1.4724988088319616e-15  1.2434681832427970e-15  4.5711183227588804e-15  2.9726698828808460e-14  2.9077764804305829e-13  2.4857988262766360e-12  9.1932581382286541e-12  1.6019711123881029e-11  1.9435122053578596e-11  2.0093575585593672e-11  1.9380673015538862e-11  1.9262813778787750e-11  2.7099529870723647e-11  8.6995149708912650e-11  4.8148699844216086e-10  3.0248866076119427e-09  1.9299741153087647e-08  1.2259364992585928e-07  7.7084159646256745e-07  4.7745210160721162e-06  2.8937623079633926e-05  1.6993661110921738e-04  9.5386303544845385e-04  5.0165856689587639e-03  2.4355180747891739e-02  1.0615397979508587e-01  3.7965327685917721e-01  7.4688363032256955e-01  9.1163557227382430e-01  9.6301782370416178e-01  9.8172816229962334e-01  9.8948179036950412e-01  9.9289013951650684e-01  9.9434383509393975e-01  9.9474866798657680e-01  3.2282898814057382e-11  3.1419061966082475e-11  2.9006305222279943e-11  2.5533539421673740e-11  2.1674350126634620e-11  1.8125369725009902e-11  1.5457117159457979e-11  1.4013313749335577e-11  1.3872601665586188e-11  1.4867577101381246e-11  1.6646706849568024e-11  1.8762918867874787e-11  2.0772406291468307e-11  2.2325372840413718e-11  2.3229451671928350e-11  2.3470849558998005e-11  2.3189272273860226e-11  2.2616530437423175e-11  2.1999090529444373e-11  2.1527577345733533e-11  2.1291616757279147e-11  2.1269543719208016e-11  2.1352442737259036e-11  2.1392607169045744e-11  2.1259507548785984e-11  2.0884128876886275e-11  2.0276931610802313e-11  1.9514825341839176e-11  1.8704261997389181e-11  1.7935739934744918e-11  1.7246767760466538e-11  1.6606160580389927e-11  1.5924853737207953e-11  1.5089596717315610e-11  1.4007872002878386e-11  1.2647508668409348e-11  1.1055414075751550e-11  9.3477059048307372e-12  7.6756078912409932e-12  6.1817637476793709e-12  4.9644201491693019e-12  4.0609912638639449e-12  3.4520962055740697e-12  3.0788023093918599e-12  2.8635598464447804e-12  2.7283621300066362e-12  2.6080590236069062e-12  2.4591504754792037e-12  2.2643129133212560e-12  2.0320572231096723e-12  1.7909339581553722e-12  1.5787657404483933e-12  1.4285313486795567e-12  1.3531337147695819e-12  1.3322983445610929e-12  1.3092422284906578e-12  1.2160772700217024e-12  1.0689642411563695e-12  1.0165826431878660e-12  1.2110286314855295e-12  1.6892991442757686e-12  2.2067397869247789e-12  2.3481411001657148e-12  1.8460112573408180e-12  8.7737486536142939e-13  2.5895747280277393e-13  8.7637378332197328e-14  6.4047593992925943e-14  1.1857360991257575e-13  4.2709506062420377e-13  1.8766199830129286e-12  5.8277429339745195e-12  1.0836343945535082e-11  1.4442840677748039e-11  1.6191873395963036e-11  1.6587069162215322e-11  1.6385983332473262e-11  1.6874056428703291e-11  2.3119723587091713e-11  6.4825839798634176e-11  3.2682078401312808e-10  1.9570871007087108e-09  1.2004176062856548e-08  7.3059584663542589e-08  4.3702496564708853e-07  2.5510066530803124e-06  1.4404527893808942e-05  7.7808103706424305e-05  3.9652605477100828e-04  1.8833707497016080e-03  8.2149919771920942e-03  3.2599948617968243e-02  1.1511717980902840e-01  3.4001400086883304e-01  6.4977221454901968e-01  8.3542979806236173e-01  9.1540309153904409e-01  9.4941614976792621e-01  9.6438490107269381e-01  9.7076955634537210e-01  9.7256204631937493e-01  2.4150039333149181e-11  2.3575942806408596e-11  2.1975117847899849e-11  1.9679625169914640e-11  1.7146134339955032e-11  1.4844518659139431e-11  1.3154546296499104e-11  1.2296603794760546e-11  1.2307579082197975e-11  1.3059089718324767e-11  1.4307168445821696e-11  1.5759866551777477e-11  1.7148660532913538e-11  1.8289112301044742e-11  1.9117134152879279e-11  1.9691750483388531e-11  2.0163684751922233e-11  2.0718688091651702e-11  2.1511507467185641e-11  2.2608659627326695e-11  2.3955959934966131e-11  2.5381096330961794e-11  2.6632882930529811e-11  2.7447774168571858e-11  2.7623605054944966e-11  2.7075658684457224e-11  2.5855464839596555e-11  2.4127255765983374e-11  2.2113682502616135e-11  2.0032649234059745e-11  1.8046868652898278e-11  1.6239343826947709e-11  1.4617084859791721e-11  1.3136469967937226e-11  1.1738459532113504e-11  1.0380530353047094e-11  9.0547690052804662e-12  7.7876861986126438e-12  6.6250372304239148e-12  5.6107867232800159e-12  4.7703421136411684e-12  4.1040793656438288e-12  3.5909281331167098e-12  3.1973365906231042e-12  2.8864145215745968e-12  2.6245197223558797e-12  2.3853358139187311e-12  2.1525798158989267e-12  1.9218317796765208e-12  1.7009225414985552e-12  1.5080366956540838e-12  1.3672986414435978e-12  1.3024089323067754e-12  1.3293410813575154e-12  1.4495158226989912e-12  1.6461549158314330e-12  1.8898573575975981e-12  2.1613080503600234e-12  2.4857214889965516e-12  2.9118866400646643e-12  3.4031364474422840e-12  3.8022634158708167e-12  3.9277071213569584e-12  3.6309073647437472e-12  2.8548160542359478e-12  1.8718428768914614e-12  1.1900212384229810e-12  9.9715029762083491e-13  1.3166423359685539e-12  2.4176493040824501e-12  4.6029998787588109e-12  7.4621676893176282e-12  1.0048792732171366e-11  1.1843454369351732e-11  1.2835600490381178e-11  1.3311221084102850e-11  1.3724298500343122e-11  1.4925684792856091e-11  2.0179990444571409e-11  4.7840853110809245e-11  2.0805914700041373e-10  1.1582927396083899e-09  6.7528587088219927e-09  3.9055335571284004e-08  2.2053593011170887e-07  1.2043729584829265e-06  6.2995718270475289e-06  3.1215425743186878e-05  1.4498549788670250e-04  6.2422203337229322e-04  2.4697334489520704e-03  8.8761538126082475e-03  2.8813550524397574e-02  8.3014003207306453e-02  2.0975533536009819e-01  4.1259741636911867e-01  6.1525081029423234e-01  7.4310649052975508e-01  8.0762140491412193e-01  8.3740556167024383e-01  8.4618653932476928e-01  1.7740737222643126e-11  1.7385954133224926e-11  1.6406316861157519e-11  1.5031273642191388e-11  1.3569825653022058e-11  1.2327493527652656e-11  1.1532056917796651e-11  1.1288361187312865e-11  1.1570398457988331e-11  1.2247244923804819e-11  1.3132158102870865e-11  1.4041296035773478e-11  1.4848229171197630e-11  1.5521574906890595e-11  1.6136212458608140e-11  1.6854242978840476e-11  1.7879159688319777e-11  1.9393271968268556e-11  2.1492525379744129e-11  2.4134434113258473e-11  2.7114502593909652e-11  3.0083427409650033e-11  3.2609069867893185e-11  3.4272695067760678e-11  3.4772732944075715e-11  3.4000905614038164e-11  3.2063066080521899e-11  2.9239122908303809e-11  2.5901154699012854e-11  2.2422358303974031e-11  1.9106216631793733e-11  1.6150649375591736e-11  1.3646197451001477e-11  1.1597591646090831e-11  9.9554276085830481e-12  8.6466522113585083e-12  7.5966572376094525e-12  6.7405670286944440e-12  6.0256895783788839e-12  5.4096981002647390e-12  4.8589433245507107e-12  4.3488142403369491e-12  3.8651500168439995e-12  3.4043820785694258e-12  2.9710116444672421e-12  2.5731237622831514e-12  2.2181207123640559e-12  1.9106960138333397e-12  1.6536212752999801e-12  1.4503712748645158e-12  1.3079224608876131e-12  1.2383056813706720e-12  1.2580971964126219e-12  1.3855072122146572e-12  1.6352063691846083e-12  2.0120675530141243e-12  2.5066041851905641e-12  3.0953041096115579e-12  3.7437116272508289e-12  4.4016650980910220e-12  4.9904847840693075e-12  5.4076792535466437e-12  5.5563721431207832e-12  5.3759460692455162e-12  4.8730123105461891e-12  4.1676439227927465e-12  3.5221607543102310e-12  3.2336108825683844e-12  3.4815996063651885e-12  4.3029052722686221e-12  5.5582475321388420e-12  6.9523574628158378e-12  8.1993367639040012e-12  9.1619815574752318e-12  9.8924144380659911e-12  1.0601924085774973e-11  1.1632440528836157e-11  1.3591123649775807e-11  1.8485250026580260e-11  3.6749884119709817e-11  1.2824022268958891e-10  6.3431170351752422e-10  3.4541059343394334e-09  1.8820889774947606e-08  9.9724781097456634e-08  5.0734068137449452e-07  2.4534380870926077e-06  1.1172026116397213e-05  4.7455719725282789e-05  1.8650245045862988e-04  6.7221702989938333e-04  2.2088078667810243e-03  6.5526052597237776e-03  1.7518734007930432e-02  4.1623734720167879e-02  8.9022528699126552e-02  1.6429056568647440e-01  2.5068272203463948e-01  3.2511527397630596e-01  3.7407335858809604e-01  3.9109783064197828e-01  1.3297411003554820e-11  1.3085342808446858e-11  1.2517219928956837e-11  1.1773705487536901e-11  1.1086815278937948e-11  1.0664816635874831e-11  1.0630067004307331e-11  1.0988781263134253e-11  1.1638721836940709e-11  1.2409012060011072e-11  1.3119001684057951e-11  1.3640238192203801e-11  1.3945763406002318e-11  1.4133688376331890e-11  1.4417619476622195e-11  1.5084379942760500e-11  1.6427171696500962e-11  1.8667255633790374e-11  2.1879061852331405e-11  2.5934439659220683e-11  3.0482922385451581e-11  3.4983837835