<?xml version="1.0"?>
<VTKFile type="UnstructuredGrid"  version="0.1"  >
<UnstructuredGrid>
<Piece  NumberOfPoints="20201" NumberOfCells="40000">
<Points>
<DataArray  type="Float64"  NumberOfComponents="3"  format="ascii">0 0 0  2 0 0  4 0 0  6 0 0  8 0 0  10 0 0  12 0 0  14 0 0  16 0 0  18 0 0  20 0 0  22 0 0  24 0 0  26 0 0  28 0 0  30 0 0  32 0 0  34 0 0  36 0 0  38 0 0  40 0 0  42 0 0  44 0 0  46 0 0  48 0 0  50 0 0  52 0 0  54 0 0  56 0 0  58 0 0  60 0 0  62 0 0  64 0 0  66 0 0  68 0 0  70 0 0  72 0 0  74 0 0  76 0 0  78 0 0  80 0 0  82 0 0  84 0 0  86 0 0  88 0 0  90 0 0  92 0 0  94 0 0  96 0 0  98 0 0  100 0 0  102 0 0  104 0 0  106 0 0  108 0 0  110 0 0  112 0 0  114 0 0  116 0 0  118 0 0  120 0 0  122 0 0  124 0 0  126 0 0  128 0 0  130 0 0  132 0 0  134 0 0  136 0 0  138 0 0  140 0 0  142 0 0  144 0 0  146 0 0  148 0 0  150 0 0  152 0 0  154 0 0  156 0 0  158 0 0  160 0 0  162 0 0  164 0 0  166 0 0  168 0 0  170 0 0  172 0 0  174 0 0  176 0 0  178 0 0  180 0 0  182 0 0  184 0 0  186 0 0  188 0 0  190 0 0  192 0 0  194 0 0  196 0 0  198 0 0  200 0 0  0 2 0  2 2 0  4 2 0  6 2 0  8 2 0  10 2 0  12 2 0  14 2 0  16 2 0  18 2 0  20 2 0  22 2 0  24 2 0  26 2 0  28 2 0  30 2 0  32 2 0  34 2 0  36 2 0  38 2 0  40 2 0  42 2 0  44 2 0  46 2 0  48 2 0  50 2 0  52 2 0  54 2 0  56 2 0  58 2 0  60 2 0  62 2 0  64 2 0  66 2 0  68 2 0  70 2 0  72 2 0  74 2 0  76 2 0  78 2 0  80 2 0  82 2 0  84 2 0  86 2 0  88 2 0  90 2 0  92 2 0  94 2 0  96 2 0  98 2 0  100 2 0  102 2 0  104 2 0  106 2 0  108 2 0  110 2 0  112 2 0  114 2 0  116 2 0  118 2 0  120 2 0  122 2 0  124 2 0  126 2 0  128 2 0  130 2 0  132 2 0  134 2 0  136 2 0  138 2 0  140 2 0  142 2 0  144 2 0  146 2 0  148 2 0  150 2 0  152 2 0  154 2 0  156 2 0  158 2 0  160 2 0  162 2 0  164 2 0  166 2 0  168 2 0  170 2 0  172 2 0  174 2 0  176 2 0  178 2 0  180 2 0  182 2 0  184 2 0  186 2 0  188 2 0  190 2 0  192 2 0  194 2 0  196 2 0  198 2 0  200 2 0  0 4 0  2 4 0  4 4 0  6 4 0  8 4 0  10 4 0  12 4 0  14 4 0  16 4 0  18 4 0  20 4 0  22 4 0  24 4 0  26 4 0  28 4 0  30 4 0  32 4 0  34 4 0  36 4 0  38 4 0  40 4 0  42 4 0  44 4 0  46 4 0  48 4 0  50 4 0  52 4 0  54 4 0  56 4 0  58 4 0  60 4 0  62 4 0  64 4 0  66 4 0  68 4 0  70 4 0  72 4 0  74 4 0  76 4 0  78 4 0  80 4 0  82 4 0  84 4 0  86 4 0  88 4 0  90 4 0  92 4 0  94 4 0  96 4 0  98 4 0  100 4 0  102 4 0  104 4 0  106 4 0  108 4 0  110 4 0  112 4 0  114 4 0  116 4 0  118 4 0  120 4 0  122 4 0  124 4 0  126 4 0  128 4 0  130 4 0  132 4 0  134 4 0  136 4 0  138 4 0  140 4 0  142 4 0  144 4 0  146 4 0  148 4 0  150 4 0  152 4 0  154 4 0  156 4 0  158 4 0  160 4 0  162 4 0  164 4 0  166 4 0  168 4 0  170 4 0  172 4 0  174 4 0  176 4 0  178 4 0  180 4 0  182 4 0  184 4 0  186 4 0  188 4 0  190 4 0  192 4 0  194 4 0  196 4 0  198 4 0  200 4 0  0 6 0  2 6 0  4 6 0  6 6 0  8 6 0  10 6 0  12 6 0  14 6 0  16 6 0  18 6 0  20 6 0  22 6 0  24 6 0  26 6 0  28 6 0  30 6 0  32 6 0  34 6 0  36 6 0  38 6 0  40 6 0  42 6 0  44 6 0  46 6 0  48 6 0  50 6 0  52 6 0  54 6 0  56 6 0  58 6 0  60 6 0  62 6 0  64 6 0  66 6 0  68 6 0  70 6 0  72 6 0  74 6 0  76 6 0  78 6 0  80 6 0  82 6 0  84 6 0  86 6 0  88 6 0  90 6 0  92 6 0  94 6 0  96 6 0  98 6 0  100 6 0  102 6 0  104 6 0  106 6 0  108 6 0  110 6 0  112 6 0  114 6 0  116 6 0  118 6 0  120 6 0  122 6 0  124 6 0  126 6 0  128 6 0  130 6 0  132 6 0  134 6 0  136 6 0  138 6 0  140 6 0  142 6 0  144 6 0  146 6 0  148 6 0  150 6 0  152 6 0  154 6 0  156 6 0  158 6 0  160 6 0  162 6 0  164 6 0  166 6 0  168 6 0  170 6 0  172 6 0  174 6 0  176 6 0  178 6 0  180 6 0  182 6 0  184 6 0  186 6 0  188 6 0  190 6 0  192 6 0  194 6 0  196 6 0  198 6 0  200 6 0  0 8 0  2 8 0  4 8 0  6 8 0  8 8 0  10 8 0  12 8 0  14 8 0  16 8 0  18 8 0  20 8 0  22 8 0  24 8 0  26 8 0  28 8 0  30 8 0  32 8 0  34 8 0  36 8 0  38 8 0  40 8 0  42 8 0  44 8 0  46 8 0  48 8 0  50 8 0  52 8 0  54 8 0  56 8 0  58 8 0  60 8 0  62 8 0  64 8 0  66 8 0  68 8 0  70 8 0  72 8 0  74 8 0  76 8 0  78 8 0  80 8 0  82 8 0  84 8 0  86 8 0  88 8 0  90 8 0  92 8 0  94 8 0  96 8 0  98 8 0  100 8 0  102 8 0  104 8 0  106 8 0  108 8 0  110 8 0  112 8 0  114 8 0  116 8 0  118 8 0  120 8 0  122 8 0  124 8 0  126 8 0  128 8 0  130 8 0  132 8 0  134 8 0  136 8 0  138 8 0  140 8 0  142 8 0  144 8 0  146 8 0  148 8 0  150 8 0  152 8 0  154 8 0  156 8 0  158 8 0  160 8 0  162 8 0  164 8 0  166 8 0  168 8 0  170 8 0  172 8 0  174 8 0  176 8 0  178 8 0  180 8 0  182 8 0  184 8 0  186 8 0  188 8 0  190 8 0  192 8 0  194 8 0  196 8 0  198 8 0  200 8 0  0 10 0  2 10 0  4 10 0  6 10 0  8 10 0  10 10 0  12 10 0  14 10 0  16 10 0  18 10 0  20 10 0  22 10 0  24 10 0  26 10 0  28 10 0  30 10 0  32 10 0  34 10 0  36 10 0  38 10 0  40 10 0  42 10 0  44 10 0  46 10 0  48 10 0  50 10 0  52 10 0  54 10 0  56 10 0  58 10 0  60 10 0  62 10 0  64 10 0  66 10 0  68 10 0  70 10 0  72 10 0  74 10 0  76 10 0  78 10 0  80 10 0  82 10 0  84 10 0  86 10 0  88 10 0  90 10 0  92 10 0  94 10 0  96 10 0  98 10 0  100 10 0  102 10 0  104 10 0  106 10 0  108 10 0  110 10 0  112 10 0  114 10 0  116 10 0  118 10 0  120 10 0  122 10 0  124 10 0  126 10 0  128 10 0  130 10 0  132 10 0  134 10 0  136 10 0  138 10 0  140 10 0  142 10 0  144 10 0  146 10 0  148 10 0  150 10 0  152 10 0  154 10 0  156 10 0  158 10 0  160 10 0  162 10 0  164 10 0  166 10 0  168 10 0  170 10 0  172 10 0  174 10 0  176 10 0  178 10 0  180 10 0  182 10 0  184 10 0  186 10 0  188 10 0  190 10 0  192 10 0  194 10 0  196 10 0  198 10 0  200 10 0  0 12 0  2 12 0  4 12 0  6 12 0  8 12 0  10 12 0  12 12 0  14 12 0  16 12 0  18 12 0  20 12 0  22 12 0  24 12 0  26 12 0  28 12 0  30 12 0  32 12 0  34 12 0  36 12 0  38 12 0  40 12 0  42 12 0  44 12 0  46 12 0  48 12 0  50 12 0  52 12 0  54 12 0  56 12 0  58 12 0  60 12 0  62 12 0  64 12 0  66 12 0  68 12 0  70 12 0  72 12 0  74 12 0  76 12 0  78 12 0  80 12 0  82 12 0  84 12 0  86 12 0  88 12 0  90 12 0  92 12 0  94 12 0  96 12 0  98 12 0  100 12 0  102 12 0  104 12 0  106 12 0  108 12 0  110 12 0  112 12 0  114 12 0  116 12 0  118 12 0  120 12 0  122 12 0  124 12 0  126 12 0  128 12 0  130 12 0  132 12 0  134 12 0  136 12 0  138 12 0  140 12 0  142 12 0  144 12 0  146 12 0  148 12 0  150 12 0  152 12 0  154 12 0  156 12 0  158 12 0  160 12 0  162 12 0  164 12 0  166 12 0  168 12 0  170 12 0  172 12 0  174 12 0  176 12 0  178 12 0  180 12 0  182 12 0  184 12 0  186 12 0  188 12 0  190 12 0  192 12 0  194 12 0  196 12 0  198 12 0  200 12 0  0 14 0  2 14 0  4 14 0  6 14 0  8 14 0  10 14 0  12 14 0  14 14 0  16 14 0  18 14 0  20 14 0  22 14 0  24 14 0  26 14 0  28 14 0  30 14 0  32 14 0  34 14 0  36 14 0  38 14 0  40 14 0  42 14 0  44 14 0  46 14 0  48 14 0  50 14 0  52 14 0  54 14 0  56 14 0  58 14 0  60 14 0  62 14 0  64 14 0  66 14 0  68 14 0  70 14 0  72 14 0  74 14 0  76 14 0  78 14 0  80 14 0  82 14 0  84 14 0  86 14 0  88 14 0  90 14 0  92 14 0  94 14 0  96 14 0  98 14 0  100 14 0  102 14 0  104 14 0  106 14 0  108 14 0  110 14 0  112 14 0  114 14 0  116 14 0  118 14 0  120 14 0  122 14 0  124 14 0  126 14 0  128 14 0  130 14 0  132 14 0  134 14 0  136 14 0  138 14 0  140 14 0  142 14 0  144 14 0  146 14 0  148 14 0  150 14 0  152 14 0  154 14 0  156 14 0  158 14 0  160 14 0  162 14 0  164 14 0  166 14 0  168 14 0  170 14 0  172 14 0  174 14 0  176 14 0  178 14 0  180 14 0  182 14 0  184 14 0  186 14 0  188 14 0  190 14 0  192 14 0  194 14 0  196 14 0  198 14 0  200 14 0  0 16 0  2 16 0  4 16 0  6 16 0  8 16 0  10 16 0  12 16 0  14 16 0  16 16 0  18 16 0  20 16 0  22 16 0  24 16 0  26 16 0  28 16 0  30 16 0  32 16 0  34 16 0  36 16 0  38 16 0  40 16 0  42 16 0  44 16 0  46 16 0  48 16 0  50 16 0  52 16 0  54 16 0  56 16 0  58 16 0  60 16 0  62 16 0  64 16 0  66 16 0  68 16 0  70 16 0  72 16 0  74 16 0  76 16 0  78 16 0  80 16 0  82 16 0  84 16 0  86 16 0  88 16 0  90 16 0  92 16 0  94 16 0  96 16 0  98 16 0  100 16 0  102 16 0  104 16 0  106 16 0  108 16 0  110 16 0  112 16 0  114 16 0  116 16 0  118 16 0  120 16 0  122 16 0  124 16 0  126 16 0  128 16 0  130 16 0  132 16 0  134 16 0  136 16 0  138 16 0  140 16 0  142 16 0  144 16 0  146 16 0  148 16 0  150 16 0  152 16 0  154 16 0  156 16 0  158 16 0  160 16 0  162 16 0  164 16 0  166 16 0  168 16 0  170 16 0  172 16 0  174 16 0  176 16 0  178 16 0  180 16 0  182 16 0  184 16 0  186 16 0  188 16 0  190 16 0  192 16 0  194 16 0  196 16 0  198 16 0  200 16 0  0 18 0  2 18 0  4 18 0  6 18 0  8 18 0  10 18 0  12 18 0  14 18 0  16 18 0  18 18 0  20 18 0  22 18 0  24 18 0  26 18 0  28 18 0  30 18 0  32 18 0  34 18 0  36 18 0  38 18 0  40 18 0  42 18 0  44 18 0  46 18 0  48 18 0  50 18 0  52 18 0  54 18 0  56 18 0  58 18 0  60 18 0  62 18 0  64 18 0  66 18 0  68 18 0  70 18 0  72 18 0  74 18 0  76 18 0  78 18 0  80 18 0  82 18 0  84 18 0  86 18 0  88 18 0  90 18 0  92 18 0  94 18 0  96 18 0  98 18 0  100 18 0  102 18 0  104 18 0  106 18 0  108 18 0  110 18 0  112 18 0  114 18 0  116 18 0  118 18 0  120 18 0  122 18 0  124 18 0  126 18 0  128 18 0  130 18 0  132 18 0  134 18 0  136 18 0  138 18 0  140 18 0  142 18 0  144 18 0  146 18 0  148 18 0  150 18 0  152 18 0  154 18 0  156 18 0  158 18 0  160 18 0  162 18 0  164 18 0  166 18 0  168 18 0  170 18 0  172 18 0  174 18 0  176 18 0  178 18 0  180 18 0  182 18 0  184 18 0  186 18 0  188 18 0  190 18 0  192 18 0  194 18 0  196 18 0  198 18 0  200 18 0  0 20 0  2 20 0  4 20 0  6 20 0  8 20 0  10 20 0  12 20 0  14 20 0  16 20 0  18 20 0  20 20 0  22 20 0  24 20 0  26 20 0  28 20 0  30 20 0  32 20 0  34 20 0  36 20 0  38 20 0  40 20 0  42 20 0  44 20 0  46 20 0  48 20 0  50 20 0  52 20 0  54 20 0  56 20 0  58 20 0  60 20 0  62 20 0  64 20 0  66 20 0  68 20 0  70 20 0  72 20 0  74 20 0  76 20 0  78 20 0  80 20 0  82 20 0  84 20 0  86 20 0  88 20 0  90 20 0  92 20 0  94 20 0  96 20 0  98 20 0  100 20 0  102 20 0  104 20 0  106 20 0  108 20 0  110 20 0  112 20 0  114 20 0  116 20 0  118 20 0  120 20 0  122 20 0  124 20 0  126 20 0  128 20 0  130 20 0  132 20 0  134 20 0  136 20 0  138 20 0  140 20 0  142 20 0  144 20 0  146 20 0  148 20 0  150 20 0  152 20 0  154 20 0  156 20 0
[...]
<PointData  Scalars="f_271-3"> 
<DataArray  type="Float64"  Name="f_271-3"  format="ascii">1.1351636638200279e-07  1.0881182100142134e-07  9.5906088704116294e-08  7.7977723135124638e-08  5.9079467512109598e-08  4.2934118666178983e-08  3.2103607939422349e-08  2.7693741079339942e-08  2.9461511274979677e-08  3.6103836617923006e-08  4.5596684237189514e-08  5.5571419580721924e-08  6.3747180337555612e-08  6.8378167336991028e-08  6.8596567926096954e-08  6.4521062672893785e-08  5.7087171106082531e-08  4.7682676213469058e-08  3.7745118672362977e-08  2.8456512413586112e-08  2.0592054828933667e-08  1.4509916325876033e-08  1.0237709048297845e-08  7.6071925749427521e-09  6.3934825346417100e-09  6.4222219582321999e-09  7.6198452666036631e-09  9.9981323441240262e-09  1.3580574503941039e-08  1.8291316267995785e-08  2.3838750876239370e-08  2.9638011210144253e-08  3.4825308732790664e-08  3.8405425895399685e-08  3.9523463270092828e-08  3.7772096131236148e-08  3.3387812115666148e-08  2.7215433782282796e-08  2.0436034133382099e-08  1.4186151962715862e-08  9.2499835641001495e-09  5.9444331650599167e-09  4.1912712323266391e-09  3.6761847158657421e-09  3.9904978076885002e-09  4.7153774080096841e-09  5.4691664024727275e-09  5.9503536509959012e-09  5.9830098989827924e-09  5.5459589159789827e-09  4.7642240836144975e-09  3.8578020039012777e-09  3.0611310498552187e-09  2.5295590402231394e-09  2.2218919851488753e-09  1.7180132295824656e-09  6.3850735252271960e-10  7.3786305265862923e-11  6.6923653705085388e-12  9.8261762091522497e-13  1.4091882734081882e-13  5.4291621888521264e-13  4.0998406783207949e-12  3.2865869686356428e-12  3.6376444177295089e-13  1.6248264215908971e-14  2.1152328848646466e-15  7.3986729888000297e-14  1.6594475604103269e-12  2.4267833450529591e-11  5.2333149471835155e-10  8.2254186323491100e-09  3.3945986898093351e-08  5.1515244383606379e-08  5.4836542450012110e-08  5.0982630593058716e-08  4.3718764458599328e-08  3.5157229994372388e-08  2.6730461678882292e-08  1.9370193598955462e-08  1.3639718185608270e-08  1.0337060777102102e-08  1.4058265723116999e-08  5.6765525581145035e-08  3.5889195635359963e-07  2.4437302697867428e-06  1.6917606958871903e-05  1.1836541317525652e-04  8.3771747701439205e-04  6.0046499540548793e-03  4.3400118736604265e-02  2.7169486238660268e-01  7.6586726768361524e-01  9.5249477630946922e-01  9.8905599568078206e-01  9.9713157562889398e-01  9.9912721856501385e-01  9.9967354551812104e-01  9.9984177897889104e-01  9.9989785749496551e-01  9.9991171106569088e-01  1.0952970276606710e-07  1.0503102736505405e-07  9.2680048614583438e-08  7.5494684525225841e-08  5.7335228771536282e-08  4.1765892100513109e-08  3.1260126058727074e-08  2.6908149779415706e-08  2.8507609998722894e-08  3.4831603926667444e-08  4.3949871714774267e-08  5.3589327495725443e-08  6.1550553524201678e-08  6.6140013066424737e-08  6.6503127816705536e-08  6.2732999506203254e-08  5.5711895961863866e-08  4.6764057098227125e-08  3.7269554380728954e-08  2.8369169528460304e-08  2.0816042246300276e-08  1.4963033860437935e-08  1.0843913980569642e-08  8.3019270175770143e-09  7.1234376776350612e-09  7.1411449384883805e-09  8.2826104886409792e-09  1.0555478663386701e-08  1.3976763943471105e-08  1.8466608424944677e-08  2.3737853047509201e-08  2.9224078130615544e-08  3.4096300720700577e-08  3.7406455447758762e-08  3.8347492144133691e-08  3.6544526218465118e-08  3.2238006869439559e-08  2.6245771846206629e-08  1.9701153404959935e-08  1.3689650122735911e-08  8.9566579527720292e-09  5.7993709734422062e-09  4.1366107038466645e-09  3.6611028779981283e-09  3.9753978113785727e-09  4.6734677431649174e-09  5.3873852245244089e-09  5.8293709242276002e-09  5.8351005426464285e-09  5.3902844697038197e-09  4.6205101451737757e-09  3.7404301931441308e-09  2.9758876776575111e-09  2.4756357417207201e-09  2.2064340696870539e-09  1.7959002646244052e-09  7.9345040695264786e-10  1.1516522698708701e-10  1.1823230889457333e-11  2.0019754617968009e-12  6.7683126471932768e-13  2.9919345079744532e-12  2.2966020759240575e-11  1.5145993147124212e-11  1.4386751713130831e-12  5.9084390204720238e-14  3.4516937121058307e-14  2.5206806645174203e-13  2.9501683248580715e-12  3.7488591559099324e-11  7.4664034217538005e-10  9.8332136313648522e-09  3.4733591640627420e-08  5.0314381259190224e-08  5.3138631548665573e-08  4.9410118842865825e-08  4.2477248093219930e-08  3.4309214347251382e-08  2.6266760942996267e-08  1.9241481579503707e-08  1.3774511600909838e-08  1.0627661752679415e-08  1.4155424214893554e-08  5.4487957703649044e-08  3.3817421825791107e-07  2.2818186976471246e-06  1.5654187232270011e-05  1.0827743553457780e-04  7.5436295101348309e-04  5.2838928326872717e-03  3.6679491846608993e-02  2.2763571570910013e-01  7.1139214479695478e-01  9.3726566605955564e-01  9.8450305036599173e-01  9.9552737031336680e-01  9.9845450583613815e-01  9.9933721143142074e-01  9.9963848677033118e-01  9.9974818576205127e-01  9.9977662354778873e-01  9.8399408785096632e-08  9.4467772279301666e-08  8.3647791479736782e-08  6.8521216058961736e-08  5.2422131526199052e-08  3.8475687576386455e-08  2.8903896690714256e-08  2.4744397436645081e-08  2.5898921704508977e-08  3.1346457733717507e-08  3.9415684227671186e-08  4.8101441158724763e-08  5.5436227440821129e-08  5.9879181881786813e-08  6.0620265525851095e-08  5.7688050526034522e-08  5.1820874537680326e-08  4.4167219963381619e-08  3.5945093724144185e-08  2.8175837384388228e-08  2.1544905701899925e-08  1.6383435693912804e-08  1.2735612648947023e-08  1.0470999829735196e-08  9.4034996509419680e-09  9.3841509272192118e-09  1.0345041177153315e-08  1.2286140418627308e-08  1.5212109574323622e-08  1.9038620357514403e-08  2.3497561278201029e-08  2.8079383141325709e-08  3.2055198970205410e-08  3.4608308327545676e-08  3.5061968160679321e-08  3.3126886833514440e-08  2.9049769579392719e-08  2.3569915092250313e-08  1.7686103691516388e-08  1.2341371994666735e-08  8.1732374105002780e-09  5.4242514637800599e-09  4.0054656947228819e-09  3.6302209885083385e-09  3.9340627677525268e-09  4.5487304862968135e-09  5.1463085509926839e-09  5.4780315347506198e-09  5.4113756764870406e-09  4.9496533065149630e-09  4.2180074391921698e-09  3.4144674085954770e-09  2.7399104569380391e-09  2.3237859952212327e-09  2.1478146966197753e-09  1.9499499533391477e-09  1.2561951083229240e-09  3.5791922625513662e-10  5.7742051527295439e-11  1.3052290439606792e-11  9.5343709347412412e-12  5.5875322062268728e-11  2.0437717155789762e-10  1.2118348947467801e-10  1.2404039740669756e-11  1.3681783500637743e-12  7.0653823220506042e-13  1.9560283974243025e-12  1.3150347069041376e-11  1.2258406845961125e-10  1.9224752562601309e-09  1.4697551678462463e-08  3.5627105230668025e-08  4.6562325198156997e-08  4.8318570461434704e-08  4.4987801749443580e-08  3.8989471996081861e-08  3.1933869001409378e-08  2.4990248192119084e-08  1.8939254724839971e-08  1.4257730211664030e-08  1.1603428362316587e-08  1.4673016212795932e-08  4.8700874739276705e-08  2.8362846531789908e-07  1.8590474560413074e-06  1.2411182794959986e-05  8.2989727732266715e-05  5.5239303717218100e-04  3.6240665207441041e-03  2.2867727277222361e-02  1.3235573993437699e-01  5.1947097465068093e-01  8.6750269116770240e-01  9.6319591121550896e-01  9.8751015564464795e-01  9.9487430304255009e-01  9.9743297232563199e-01  9.9843220498100449e-01  9.9883030238680004e-01  9.9893797146881913e-01  8.2342426639848616e-08  7.9207370041427450e-08  7.0546640501260209e-08  5.8347170970601747e-08  4.5215362121598754e-08  3.3654025053910639e-08  2.5510552629713849e-08  2.1721062867402908e-08  2.2310004032673559e-08  2.6532851862055122e-08  3.3082328349963828e-08  4.0342046860298972e-08  4.6691621810311429e-08  5.0830297584113171e-08  5.2035396083817652e-08  5.0264058936115758e-08  4.6062631285319506e-08  4.0332462190992101e-08  3.4054053836263647e-08  2.8063906377751077e-08  2.2931009078696787e-08  1.8932972112679548e-08  1.6106520947109740e-08  1.4339678548241127e-08  1.3472780166061708e-08  1.3378695114472219e-08  1.4000923057041992e-08  1.5341689400344792e-08  1.7407039191781806e-08  2.0127957559563467e-08  2.3284573325204188e-08  2.6465556988683234e-08  2.9094789546338301e-08  3.0543810708794521e-08  3.0313831450863427e-08  2.8224138129372162e-08  2.4516009087527004e-08  1.9805497895024855e-08  1.4892863847392222e-08  1.0515100892971831e-08  7.1550939482474363e-09  4.9778149015940247e-09  3.8849437264596689e-09  3.6229907986588081e-09  3.8803933566979746e-09  4.3493961008632096e-09  4.7645178200370699e-09  4.9348887610302741e-09  4.7717964648198854e-09  4.2990900430929979e-09  3.6355102883816011e-09  2.9504601369941948e-09  2.4064529785479747e-09  2.1036626246876055e-09  2.0334168079663949e-09  2.0375020508246791e-09  1.7990160540776334e-09  1.1077234939732552e-09  4.5932482416346212e-10  2.2659543004084079e-10  2.5728286624768952e-10  5.6947183613365021e-10  9.3472665902553466e-10  6.6974774975053152e-10  1.6493330734427469e-10  2.4105956283012172e-11  1.0112517056332000e-11  1.9479727747756114e-11  9.3973656594477752e-11  7.5824426606276158e-10  5.8370069662795391e-09  2.0330029078574350e-08  3.3953525594526614e-08  4.0340552751227029e-08  4.1171991426865444e-08  3.8519090556100659e-08  3.3896728703795667e-08  2.8489083904396375e-08  2.3212646023395448e-08  1.8692155431574999e-08  1.5305037364180382e-08  1.3548985980511148e-08  1.6212611259900323e-08  4.2049058965223339e-08  2.1386327938678478e-07  1.3253524940555115e-06  8.4514550698491038e-06  5.3515822102179895e-05  3.3179000477202923e-04  1.9801878540829272e-03  1.1107217148052264e-02  5.6022828694448759e-02  2.4352800261553445e-01  6.4142682895588266e-01  8.8174475042655664e-01  9.5516273330639367e-01  9.7929289533600816e-01  9.8864466706018650e-01  9.9256458952189253e-01  9.9418999775027428e-01  9.9463626822617379e-01  6.4270520900197975e-08  6.1997575976980114e-08  5.5687845245287873e-08  4.6714812690765902e-08  3.6918266617781785e-08  2.8120732316167781e-08  2.1730075653865900e-08  1.8525651422963227e-08  1.8622240594246608e-08  2.1548516126041707e-08  2.6386868434322024e-08  3.1958939485087688e-08  3.7054764494511527e-08  4.0678582373282188e-08  4.2248939960295474e-08  4.1684863716643639e-08  3.9349266292283948e-08  3.5881561487808020e-08  3.1991889386400900e-08  2.8287543097677651e-08  2.5170874378357971e-08  2.2814454348407039e-08  2.1198999130750755e-08  2.0190668376296030e-08  1.9630081423474744e-08  1.9404680737365528e-08  1.9482261549580952e-08  1.9897354379963766e-08  2.0698777640731512e-08  2.1879249700209907e-08  2.3313348649334475e-08  2.4729695102731867e-08  2.5737970634995930e-08  2.5917895105569032e-08  2.4952113720049540e-08  2.2755001203632658e-08  1.9535216756447140e-08  1.5750939882580121e-08  1.1969151901849078e-08  8.6922216582791512e-09  6.2299522085649480e-09  4.6627253897400283e-09  3.8864542665469012e-09  3.6928087436701726e-09  3.8402795866027278e-09  4.0999909429773052e-09  4.2843001627242069e-09  4.2692413141330632e-09  4.0109344568029328e-09  3.5476185725748373e-09  2.9812378833364024e-09  2.4418601827251168e-09  2.0460609733746701e-09  1.8612070204386909e-09  1.8819982891773945e-09  2.0200307273257973e-09  2.1132790080540869e-09  1.9919053405825224e-09  1.6700282727004242e-09  1.4552989978633660e-09  1.5937023567519340e-09  2.0092029008253878e-09  2.3069731754936024e-09  2.0761772592983287e-09  1.2415619491737642e-09  5.2589573427871488e-10  3.0119412807740640e-10  3.8477934524417965e-10  1.0464391166994869e-09  4.0012637584563371e-09  1.1910506097617600e-08  2.1908564622365718e-08  2.9081487212548400e-08  3.2506091393227640e-08  3.2871881572981985e-08  3.1095010310038111e-08  2.8064303712445728e-08  2.4594857041946720e-08  2.1356823267104009e-08  1.8810027082538166e-08  1.7210301884518844e-08  1.6854263123577532e-08  1.9557762957741982e-08  3.7627223884141254e-08  1.4902027155286224e-07  8.3319193091795160e-07  4.9680429990158051e-06  2.9262843792183893e-05  1.6601352736115159e-04  8.8934353962725912e-04  4.3888109019084645e-03  1.9663836930446335e-02  7.6965521873819054e-02  2.6086857426755750e-01  5.8320963995251396e-01  8.0982202588424146e-01  9.0683463989981483e-01  9.4616575711371331e-01  9.6297256553915511e-01  9.6999441499530248e-01  9.7194066595011464e-01  4.6980176600076631e-08  4.5489864529123015e-08  4.1332675691973199e-08  3.5365406726657492e-08  2.8762255971167143e-08  2.2724146189832709e-08  1.8219001231700406e-08  1.5822035610544100e-08  1.5668991723570970e-08  1.7493559169709238e-08  2.0716586411448018e-08  2.4572583020912526e-08  2.8266983609857077e-08  3.1143393695153851e-08  3.2818870859138063e-08  3.3242286501138983e-08  3.2656185948376000e-08  3.1481770019161364e-08  3.0173816397482761e-08  2.9093647151478550e-08  2.8430791020847050e-08  2.8183947062091405e-08  2.8197721688065790e-08  2.8240896977166984e-08  2.8100974266109591e-08  2.7662153703214153e-08  2.6938099588433690e-08  2.6049185338439207e-08  2.5157500858852675e-08  2.4388421154986421e-08  2.3768771093735775e-08  2.3202729434188615e-08  2.2494683655957391e-08  2.1415410350849476e-08  1.9792678249013357e-08  1.7592515391395954e-08  1.4953472272638743e-08  1.2152842398906959e-08  9.5168026576729878e-09  7.3161921804209211e-09  5.6953648992728292e-09  4.6589399735707411e-09  4.1071172494590207e-09  3.8889884250604919e-09  3.8466986305225290e-09  3.8418510270872760e-09  3.7702572957367890e-09  3.5723677415181916e-09  3.2396089907941525e-09  2.8118034141410748e-09  2.3627373076652429e-09  1.9770109786969542e-09  1.7257992099117028e-09  1.6487562572743161e-09  1.7452139068051103e-09  1.9743071661179735e-09  2.2648729577529384e-09  2.5419851419893856e-09  2.7749699160602910e-09  3.0190154175167770e-09  3.3543396389433904e-09  3.7416375520729981e-09  4.0291119529364384e-09  4.0447917943124407e-09  3.6447024055288756e-09  2.9597221830350402e-09  2.5514206227719461e-09  2.9622158057262761e-09  4.7879331815298202e-09  8.6559032304053069e-09  1.3967515896158802e-08  1.8975660598401743e-08  2.2550792372300303e-08  2.4389516302754225e-08  2.4669252272950215e-08  2.3810988222066280e-08  2.2357061283713632e-08  2.0872473383756706e-08  1.9843771548102297e-08  1.9595605398469099e-08  2.0259698146579942e-08  2.1905880068318401e-08  2.5444035610082088e-08  3.7870800343807700e-08  1.0260107094581235e-07  4.7162005422364689e-07  2.5464938630595273e-06  1.3738387932722026e-05  7.0664035723497280e-05  3.3861501437418268e-04  1.4896315183220341e-03  5.8970709714939069e-03  2.1034111191590411e-02  6.5169539999771875e-02  1.7732441431452467e-01  3.7643337096346513e-01  5.9186147362624308e-01  7.3217058941501612e-01  8.0255821156318929e-01  8.3448397426371446e-01  8.4379323789565508e-01  3.2537206586064791e-08  3.1656132309194877e-08  2.9195400647621678e-08  2.5656649887885336e-08  2.1734951794664126e-08  1.8149621840760826e-08  1.5484895395690898e-08  1.4086302007661947e-08  1.4028601441388198e-08  1.5142680437318944e-08  1.7080399222751361e-08  1.9403024405902066e-08  2.1683246974750248e-08  2.3604469035156097e-08  2.5031809298246466e-08  2.6030590231726835e-08  2.6824364135332174e-08  2.7706727388003744e-08  2.8935651999625029e-08  3.0640143716915066e-08  3.2762054481211557e-08  3.5048642715234730e-08  3.7104242938417337e-08  3.8495343883789335e-08  3.8880389260971258e-08  3.8116017906522146e-08  3.6294452533013712e-08  3.3697673192746728e-08  3.0694204508117008e-08  2.7626607614178366e-08  2.4731292777982489e-08  2.2109000154018138e-08  1.9742746990799338e-08  1.7548246010774568e-08  1.5436614777382679e-08  1.3366908243431433e-08  1.1368818539959410e-08  9.5276102769174928e-09  7.9413677148039897e-09  6.6746503942286521e-09  5.7326606221530996e-09  5.0655049294579239e-09  4.5935750366228035e-09  4.2357015277123205e-09  3.9264345677883531e-09  3.6207504977690344e-09  3.2927374306888114e-09  2.9345089450971145e-09  2.5563131783539812e-09  2.1849315756234550e-09  1.8580670396302613e-09  1.6158180139594060e-09  1.4927294602952455e-09  1.5130652624787627e-09  1.6889949556736001e-09  2.0195221266490531e-09  2.4893025627596833e-09  3.0695938635567478e-09  3.7235783933427983e-09  4.4105712474380004e-09  5.0784293113499375e-09  5.6520407045911110e-09  6.0439156107743945e-09  6.1850814534918610e-09  6.0630139790982607e-09  5.7840174328278608e-09  5.6458586574804244e-09  6.0699005941709141e-09  7.3611356226162395e-09  9.4762973052584174e-09  1.1989672958651112e-08  1.4353227506713343e-08  1.6149877432334788e-08  1.7201996711430046e-08  1.7571858994012044e-08  1.7521219135467762e-08  1.7448303798024388e-08  1.7802709712421469e-08  1.8985982212366075e-08  2.1252119676320715e-08  2.4631757273186327e-08  2.8958561140456837e-08  3.4352957710042209e-08  4.3989181395747517e-08  7.8858881343236620e-08  2.5463272066032700e-07  1.1632909183674813e-06  5.6376950002066844e-06  2.6179007473573546e-05  1.1293729830452787e-04  4.4497086733028289e-04  1.5915586571324382e-03  5.0774597191843443e-03  1.4486506640224670e-02  3.6287863803757925e-02  8.0813912472902191e-02  1.5498445568670649e-01  2.4334679583235228e-01  3.2063891688270468e-01  3.7153129260613621e-01  3.8919698963731192e-01  2.2017439190001847e-08  2.1535924305152620e-08  2.0210457126252508e-08  1.8362347528805174e-08  1.6419812901499542e-08  1.4796839617738606e-08  1.3788311473333329e-08  1.3513173853936910e-08  1.3914215402309352e-08  1.4802498679498205e-08  1.5927047183833175e-08  1.7052914726848309e-08  1.8033338601825596e-08  1.8860398089423120e-08  1.9678826692563656e-08  2.0755443882517978e-08  2.2410089425388928e-08  2.4924599563836168e-08  2.8448901260545479e-08  3.2921008460078231e-08  3.8018340497038364e-08  4.3163463331430366e-08  4.7607874294013816e-08  5.0596707292907973e-08  5.1573435797075292e-08  5.0343998068712699e-08  4.7123528053252572e-08  4.2445723238550600e-08  3.6986249564051165e-08  3.1384756306436927e-08  2.6128613268856388e-08  2.1514069018875982e-08  1.7665069506659989e-08  1.4580309599780473e-08  1.2185335041869633e-08  1.0375242637944363e-08  9.0404390561729879e-09  8.0749764509074795e-09  7.3744219453549351e-09  6.8342236344496211e-09  6.3565342167113428e-09  5.8648899180368631e-09  5.3183204374058274e-09  4.7154232406408853e-09  4.0851747181819792e-09  3.4694585864729414e-09  2.9062896458452986e-09  2.4205264149258134e-09  2.0233339700710188e-09  1.7171882587019531e-09  1.5023405529969754e-09  1.3826357379062288e-09  1.3704253021101962e-09  1.4897931032424568e-09  1.7753497653328843e-09  2.2635591924849187e-09  2.9766327240342744e-09  3.9037708410974913e-09  4.9874375088221731e-09  6.1214107525378274e-09  7.1640447632626226e-09  7.9667362677926936e-09  8.4127013169563073e-09  8.4552351268480650e-09  8.1441025318048228e-09  7.6337339439509881e-09  7.1626769320316045e-09  6.9859692366798219e-09  7.2683021775880811e-09  8.0046508116690988e-09  9.0300038919641522e-09  1.0103567869002520e-08  1.1015547773712312e-08  1.1674001671757675e-08  1.2153939557702111e-08  1.2704264197100185e-08  1.3713699260605010e-08  1.5640853495323166e-08  1.8914099809033413e-08  2.3805623298259776e-08  3.0295633844618812e-08  3.7992559861113748e-08  4.6333346721409927e-08  5.5938784442617635e-08  7.5132507031686153e-08  1.5027039893598339e-07  5.0092551993055788e-07  2.0781377621652308e-06  8.6517048642494660e-06  3.3712113784766553e-05  1.2050555343020227e-04  3.8989917701118428e-04  1.1377223922236855e-03  2.9677378709445988e-03  6.9320381006048966e-03  1.4368466318712180e-02  2.6036652048310672e-02  4.1199475035959200e-02  5.6934208509601798e-02  6.8919122161333682e-02  7.3408407216761437e-02  1.5569211456498146e-08  1.5287621513575842e-08  1.4555894099407814e-08  1.3665907460051036e-08  1.2970472134788506e-08  1.2750439541988352e-08  1.3120884837724444e-08  1.4004001827669807e-08  1.5166299601994218e-08  1.6299396104490265e-08  1.7119490625921207e-08  1.7463098220084942e-08  1.7358047050439976e-08  1.7049556027493910e-08  1.6968868373894718e-08  1.7649029576623311e-08  1.9609431251817024e-08  2.3234993467882283e-08  2.8666740043928814e-08  3.5711998123712638e-08  4.3789238228793068e-08  5.19429943744