<?xml version="1.0"?>
<VTKFile type="UnstructuredGrid"  version="0.1"  >
<UnstructuredGrid>
<Piece  NumberOfPoints="20201" NumberOfCells="40000">
<Points>
<DataArray  type="Float64"  NumberOfComponents="3"  format="ascii">0 0 0  2 0 0  4 0 0  6 0 0  8 0 0  10 0 0  12 0 0  14 0 0  16 0 0  18 0 0  20 0 0  22 0 0  24 0 0  26 0 0  28 0 0  30 0 0  32 0 0  34 0 0  36 0 0  38 0 0  40 0 0  42 0 0  44 0 0  46 0 0  48 0 0  50 0 0  52 0 0  54 0 0  56 0 0  58 0 0  60 0 0  62 0 0  64 0 0  66 0 0  68 0 0  70 0 0  72 0 0  74 0 0  76 0 0  78 0 0  80 0 0  82 0 0  84 0 0  86 0 0  88 0 0  90 0 0  92 0 0  94 0 0  96 0 0  98 0 0  100 0 0  102 0 0  104 0 0  106 0 0  108 0 0  110 0 0  112 0 0  114 0 0  116 0 0  118 0 0  120 0 0  122 0 0  124 0 0  126 0 0  128 0 0  130 0 0  132 0 0  134 0 0  136 0 0  138 0 0  140 0 0  142 0 0  144 0 0  146 0 0  148 0 0  150 0 0  152 0 0  154 0 0  156 0 0  158 0 0  160 0 0  162 0 0  164 0 0  166 0 0  168 0 0  170 0 0  172 0 0  174 0 0  176 0 0  178 0 0  180 0 0  182 0 0  184 0 0  186 0 0  188 0 0  190 0 0  192 0 0  194 0 0  196 0 0  198 0 0  200 0 0  0 2 0  2 2 0  4 2 0  6 2 0  8 2 0  10 2 0  12 2 0  14 2 0  16 2 0  18 2 0  20 2 0  22 2 0  24 2 0  26 2 0  28 2 0  30 2 0  32 2 0  34 2 0  36 2 0  38 2 0  40 2 0  42 2 0  44 2 0  46 2 0  48 2 0  50 2 0  52 2 0  54 2 0  56 2 0  58 2 0  60 2 0  62 2 0  64 2 0  66 2 0  68 2 0  70 2 0  72 2 0  74 2 0  76 2 0  78 2 0  80 2 0  82 2 0  84 2 0  86 2 0  88 2 0  90 2 0  92 2 0  94 2 0  96 2 0  98 2 0  100 2 0  102 2 0  104 2 0  106 2 0  108 2 0  110 2 0  112 2 0  114 2 0  116 2 0  118 2 0  120 2 0  122 2 0  124 2 0  126 2 0  128 2 0  130 2 0  132 2 0  134 2 0  136 2 0  138 2 0  140 2 0  142 2 0  144 2 0  146 2 0  148 2 0  150 2 0  152 2 0  154 2 0  156 2 0  158 2 0  160 2 0  162 2 0  164 2 0  166 2 0  168 2 0  170 2 0  172 2 0  174 2 0  176 2 0  178 2 0  180 2 0  182 2 0  184 2 0  186 2 0  188 2 0  190 2 0  192 2 0  194 2 0  196 2 0  198 2 0  200 2 0  0 4 0  2 4 0  4 4 0  6 4 0  8 4 0  10 4 0  12 4 0  14 4 0  16 4 0  18 4 0  20 4 0  22 4 0  24 4 0  26 4 0  28 4 0  30 4 0  32 4 0  34 4 0  36 4 0  38 4 0  40 4 0  42 4 0  44 4 0  46 4 0  48 4 0  50 4 0  52 4 0  54 4 0  56 4 0  58 4 0  60 4 0  62 4 0  64 4 0  66 4 0  68 4 0  70 4 0  72 4 0  74 4 0  76 4 0  78 4 0  80 4 0  82 4 0  84 4 0  86 4 0  88 4 0  90 4 0  92 4 0  94 4 0  96 4 0  98 4 0  100 4 0  102 4 0  104 4 0  106 4 0  108 4 0  110 4 0  112 4 0  114 4 0  116 4 0  118 4 0  120 4 0  122 4 0  124 4 0  126 4 0  128 4 0  130 4 0  132 4 0  134 4 0  136 4 0  138 4 0  140 4 0  142 4 0  144 4 0  146 4 0  148 4 0  150 4 0  152 4 0  154 4 0  156 4 0  158 4 0  160 4 0  162 4 0  164 4 0  166 4 0  168 4 0  170 4 0  172 4 0  174 4 0  176 4 0  178 4 0  180 4 0  182 4 0  184 4 0  186 4 0  188 4 0  190 4 0  192 4 0  194 4 0  196 4 0  198 4 0  200 4 0  0 6 0  2 6 0  4 6 0  6 6 0  8 6 0  10 6 0  12 6 0  14 6 0  16 6 0  18 6 0  20 6 0  22 6 0  24 6 0  26 6 0  28 6 0  30 6 0  32 6 0  34 6 0  36 6 0  38 6 0  40 6 0  42 6 0  44 6 0  46 6 0  48 6 0  50 6 0  52 6 0  54 6 0  56 6 0  58 6 0  60 6 0  62 6 0  64 6 0  66 6 0  68 6 0  70 6 0  72 6 0  74 6 0  76 6 0  78 6 0  80 6 0  82 6 0  84 6 0  86 6 0  88 6 0  90 6 0  92 6 0  94 6 0  96 6 0  98 6 0  100 6 0  102 6 0  104 6 0  106 6 0  108 6 0  110 6 0  112 6 0  114 6 0  116 6 0  118 6 0  120 6 0  122 6 0  124 6 0  126 6 0  128 6 0  130 6 0  132 6 0  134 6 0  136 6 0  138 6 0  140 6 0  142 6 0  144 6 0  146 6 0  148 6 0  150 6 0  152 6 0  154 6 0  156 6 0  158 6 0  160 6 0  162 6 0  164 6 0  166 6 0  168 6 0  170 6 0  172 6 0  174 6 0  176 6 0  178 6 0  180 6 0  182 6 0  184 6 0  186 6 0  188 6 0  190 6 0  192 6 0  194 6 0  196 6 0  198 6 0  200 6 0  0 8 0  2 8 0  4 8 0  6 8 0  8 8 0  10 8 0  12 8 0  14 8 0  16 8 0  18 8 0  20 8 0  22 8 0  24 8 0  26 8 0  28 8 0  30 8 0  32 8 0  34 8 0  36 8 0  38 8 0  40 8 0  42 8 0  44 8 0  46 8 0  48 8 0  50 8 0  52 8 0  54 8 0  56 8 0  58 8 0  60 8 0  62 8 0  64 8 0  66 8 0  68 8 0  70 8 0  72 8 0  74 8 0  76 8 0  78 8 0  80 8 0  82 8 0  84 8 0  86 8 0  88 8 0  90 8 0  92 8 0  94 8 0  96 8 0  98 8 0  100 8 0  102 8 0  104 8 0  106 8 0  108 8 0  110 8 0  112 8 0  114 8 0  116 8 0  118 8 0  120 8 0  122 8 0  124 8 0  126 8 0  128 8 0  130 8 0  132 8 0  134 8 0  136 8 0  138 8 0  140 8 0  142 8 0  144 8 0  146 8 0  148 8 0  150 8 0  152 8 0  154 8 0  156 8 0  158 8 0  160 8 0  162 8 0  164 8 0  166 8 0  168 8 0  170 8 0  172 8 0  174 8 0  176 8 0  178 8 0  180 8 0  182 8 0  184 8 0  186 8 0  188 8 0  190 8 0  192 8 0  194 8 0  196 8 0  198 8 0  200 8 0  0 10 0  2 10 0  4 10 0  6 10 0  8 10 0  10 10 0  12 10 0  14 10 0  16 10 0  18 10 0  20 10 0  22 10 0  24 10 0  26 10 0  28 10 0  30 10 0  32 10 0  34 10 0  36 10 0  38 10 0  40 10 0  42 10 0  44 10 0  46 10 0  48 10 0  50 10 0  52 10 0  54 10 0  56 10 0  58 10 0  60 10 0  62 10 0  64 10 0  66 10 0  68 10 0  70 10 0  72 10 0  74 10 0  76 10 0  78 10 0  80 10 0  82 10 0  84 10 0  86 10 0  88 10 0  90 10 0  92 10 0  94 10 0  96 10 0  98 10 0  100 10 0  102 10 0  104 10 0  106 10 0  108 10 0  110 10 0  112 10 0  114 10 0  116 10 0  118 10 0  120 10 0  122 10 0  124 10 0  126 10 0  128 10 0  130 10 0  132 10 0  134 10 0  136 10 0  138 10 0  140 10 0  142 10 0  144 10 0  146 10 0  148 10 0  150 10 0  152 10 0  154 10 0  156 10 0  158 10 0  160 10 0  162 10 0  164 10 0  166 10 0  168 10 0  170 10 0  172 10 0  174 10 0  176 10 0  178 10 0  180 10 0  182 10 0  184 10 0  186 10 0  188 10 0  190 10 0  192 10 0  194 10 0  196 10 0  198 10 0  200 10 0  0 12 0  2 12 0  4 12 0  6 12 0  8 12 0  10 12 0  12 12 0  14 12 0  16 12 0  18 12 0  20 12 0  22 12 0  24 12 0  26 12 0  28 12 0  30 12 0  32 12 0  34 12 0  36 12 0  38 12 0  40 12 0  42 12 0  44 12 0  46 12 0  48 12 0  50 12 0  52 12 0  54 12 0  56 12 0  58 12 0  60 12 0  62 12 0  64 12 0  66 12 0  68 12 0  70 12 0  72 12 0  74 12 0  76 12 0  78 12 0  80 12 0  82 12 0  84 12 0  86 12 0  88 12 0  90 12 0  92 12 0  94 12 0  96 12 0  98 12 0  100 12 0  102 12 0  104 12 0  106 12 0  108 12 0  110 12 0  112 12 0  114 12 0  116 12 0  118 12 0  120 12 0  122 12 0  124 12 0  126 12 0  128 12 0  130 12 0  132 12 0  134 12 0  136 12 0  138 12 0  140 12 0  142 12 0  144 12 0  146 12 0  148 12 0  150 12 0  152 12 0  154 12 0  156 12 0  158 12 0  160 12 0  162 12 0  164 12 0  166 12 0  168 12 0  170 12 0  172 12 0  174 12 0  176 12 0  178 12 0  180 12 0  182 12 0  184 12 0  186 12 0  188 12 0  190 12 0  192 12 0  194 12 0  196 12 0  198 12 0  200 12 0  0 14 0  2 14 0  4 14 0  6 14 0  8 14 0  10 14 0  12 14 0  14 14 0  16 14 0  18 14 0  20 14 0  22 14 0  24 14 0  26 14 0  28 14 0  30 14 0  32 14 0  34 14 0  36 14 0  38 14 0  40 14 0  42 14 0  44 14 0  46 14 0  48 14 0  50 14 0  52 14 0  54 14 0  56 14 0  58 14 0  60 14 0  62 14 0  64 14 0  66 14 0  68 14 0  70 14 0  72 14 0  74 14 0  76 14 0  78 14 0  80 14 0  82 14 0  84 14 0  86 14 0  88 14 0  90 14 0  92 14 0  94 14 0  96 14 0  98 14 0  100 14 0  102 14 0  104 14 0  106 14 0  108 14 0  110 14 0  112 14 0  114 14 0  116 14 0  118 14 0  120 14 0  122 14 0  124 14 0  126 14 0  128 14 0  130 14 0  132 14 0  134 14 0  136 14 0  138 14 0  140 14 0  142 14 0  144 14 0  146 14 0  148 14 0  150 14 0  152 14 0  154 14 0  156 14 0  158 14 0  160 14 0  162 14 0  164 14 0  166 14 0  168 14 0  170 14 0  172 14 0  174 14 0  176 14 0  178 14 0  180 14 0  182 14 0  184 14 0  186 14 0  188 14 0  190 14 0  192 14 0  194 14 0  196 14 0  198 14 0  200 14 0  0 16 0  2 16 0  4 16 0  6 16 0  8 16 0  10 16 0  12 16 0  14 16 0  16 16 0  18 16 0  20 16 0  22 16 0  24 16 0  26 16 0  28 16 0  30 16 0  32 16 0  34 16 0  36 16 0  38 16 0  40 16 0  42 16 0  44 16 0  46 16 0  48 16 0  50 16 0  52 16 0  54 16 0  56 16 0  58 16 0  60 16 0  62 16 0  64 16 0  66 16 0  68 16 0  70 16 0  72 16 0  74 16 0  76 16 0  78 16 0  80 16 0  82 16 0  84 16 0  86 16 0  88 16 0  90 16 0  92 16 0  94 16 0  96 16 0  98 16 0  100 16 0  102 16 0  104 16 0  106 16 0  108 16 0  110 16 0  112 16 0  114 16 0  116 16 0  118 16 0  120 16 0  122 16 0  124 16 0  126 16 0  128 16 0  130 16 0  132 16 0  134 16 0  136 16 0  138 16 0  140 16 0  142 16 0  144 16 0  146 16 0  148 16 0  150 16 0  152 16 0  154 16 0  156 16 0  158 16 0  160 16 0  162 16 0  164 16 0  166 16 0  168 16 0  170 16 0  172 16 0  174 16 0  176 16 0  178 16 0  180 16 0  182 16 0  184 16 0  186 16 0  188 16 0  190 16 0  192 16 0  194 16 0  196 16 0  198 16 0  200 16 0  0 18 0  2 18 0  4 18 0  6 18 0  8 18 0  10 18 0  12 18 0  14 18 0  16 18 0  18 18 0  20 18 0  22 18 0  24 18 0  26 18 0  28 18 0  30 18 0  32 18 0  34 18 0  36 18 0  38 18 0  40 18 0  42 18 0  44 18 0  46 18 0  48 18 0  50 18 0  52 18 0  54 18 0  56 18 0  58 18 0  60 18 0  62 18 0  64 18 0  66 18 0  68 18 0  70 18 0  72 18 0  74 18 0  76 18 0  78 18 0  80 18 0  82 18 0  84 18 0  86 18 0  88 18 0  90 18 0  92 18 0  94 18 0  96 18 0  98 18 0  100 18 0  102 18 0  104 18 0  106 18 0  108 18 0  110 18 0  112 18 0  114 18 0  116 18 0  118 18 0  120 18 0  122 18 0  124 18 0  126 18 0  128 18 0  130 18 0  132 18 0  134 18 0  136 18 0  138 18 0  140 18 0  142 18 0  144 18 0  146 18 0  148 18 0  150 18 0  152 18 0  154 18 0  156 18 0  158 18 0  160 18 0  162 18 0  164 18 0  166 18 0  168 18 0  170 18 0  172 18 0  174 18 0  176 18 0  178 18 0  180 18 0  182 18 0  184 18 0  186 18 0  188 18 0  190 18 0  192 18 0  194 18 0  196 18 0  198 18 0  200 18 0  0 20 0  2 20 0  4 20 0  6 20 0  8 20 0  10 20 0  12 20 0  14 20 0  16 20 0  18 20 0  20 20 0  22 20 0  24 20 0  26 20 0  28 20 0  30 20 0  32 20 0  34 20 0  36 20 0  38 20 0  40 20 0  42 20 0  44 20 0  46 20 0  48 20 0  50 20 0  52 20 0  54 20 0  56 20 0  58 20 0  60 20 0  62 20 0  64 20 0  66 20 0  68 20 0  70 20 0  72 20 0  74 20 0  76 20 0  78 20 0  80 20 0  82 20 0  84 20 0  86 20 0  88 20 0  90 20 0  92 20 0  94 20 0  96 20 0  98 20 0  100 20 0  102 20 0  104 20 0  106 20 0  108 20 0  110 20 0  112 20 0  114 20 0  116 20 0  118 20 0  120 20 0  122 20 0  124 20 0  126 20 0  128 20 0  130 20 0  132 20 0  134 20 0  136 20 0  138 20 0  140 20 0  142 20 0  144 20 0  146 20 0  148 20 0  150 20 0  152 20 0  154 20 0  156 20 0
[...]
<PointData  Scalars="f_271-3"> 
<DataArray  type="Float64"  Name="f_271-3"  format="ascii">3.3461112693206835e-09  3.2218682045423259e-09  2.8789339294097198e-09  2.3967791933393393e-09  1.8795350865215729e-09  1.4269612655493066e-09  1.1120714889871735e-09  9.7042783878465602e-10  9.9997823100382903e-10  1.1674577863363222e-09  1.4180379040938262e-09  1.6867465026914721e-09  1.9109249329359267e-09  2.0421668351719703e-09  2.0550256019963437e-09  1.9498589062326283e-09  1.7490163059945894e-09  1.4881480162412135e-09  1.2060521277761156e-09  9.3631398042191339e-10  7.0252176733939217e-10  5.1720765586778537e-10  3.8362234995721841e-10  2.9906733197551284e-10  2.5852010282610013e-10  2.5749720055394262e-10  2.9344610704535319e-10  3.6539988798473664e-10  4.7209194849049379e-10  6.0914767664886285e-10  7.6632849445504710e-10  9.2606972558536357e-10  1.0645541009939560e-09  1.1559845731029117e-09  1.1794002937526553e-09  1.1257398992140898e-09  1.0019571006739210e-09  8.2982436869117317e-10  6.3952159678134022e-10  4.6076350239937907e-10  3.1530572138175448e-10  2.1350650551320083e-10  1.5515648413392258e-10  1.3279036599355304e-10  1.3531667278345442e-10  1.5078453372492490e-10  1.6827370488743948e-10  1.7933553591392843e-10  1.7913047138545981e-10  1.6698489516249256e-10  1.4599932493940047e-10  1.2159228690591343e-10  9.9081120470214214e-11  7.9911335511117499e-11  5.5427989571440005e-11  1.8919716238178510e-11  2.2791350241601220e-12  2.1495062202911382e-13  1.8569123393838700e-14  2.2096459196650886e-15  4.3651260422658562e-16  8.7641834636756151e-15  6.0736796232060637e-14  3.2013212397188124e-14  2.8125232395622903e-15  9.0026211735914316e-17  1.4311466365616733e-17  3.4168733075661175e-16  4.3968266598365322e-15  8.2959677107131245e-14  1.8729893127374841e-12  3.5477402628532099e-11  3.8277879918547828e-10  1.1546708820969983e-09  1.5204200627847993e-09  1.5063475968278332e-09  1.3323134087809746e-09  1.1006900427718463e-09  8.6971294786013090e-10  7.1114822189163933e-10  9.2050084177429290e-10  3.3950911530910015e-09  2.0981340991307004e-08  1.4125927011736455e-07  9.6409218553253166e-07  6.6221973114555800e-06  4.5804639951193075e-05  3.1967859046449094e-04  2.2569459369843623e-03  1.6142799202616867e-02  1.1388968117431540e-01  5.2147638175330435e-01  8.9169298962840959e-01  9.7786473947442865e-01  9.9486403594295425e-01  9.9866324887920854e-01  9.9959616131189899e-01  9.9985044440232640e-01  9.9992814247821660e-01  9.9995380522437260e-01  9.9996009429886168e-01  3.2386735531533558e-09  3.1193075194347823e-09  2.7896511992474354e-09  2.3256458497022039e-09  1.8270113740911410e-09  1.3896104484910485e-09  1.0839976754679806e-09  9.4498226387312672e-10  9.7124525611430926e-10  1.1313038902621469e-09  1.3726863909485505e-09  1.6328928804542398e-09  1.8514117274543092e-09  1.9812746979398004e-09  1.9975259921300273e-09  1.9000586416380532e-09  1.7100335386823445e-09  1.4615681487558130e-09  1.1919686884976276e-09  9.3364228695855218e-10  7.0942907088947434e-10  5.3152479357555942e-10  4.0315311534959648e-10  3.2176332769196579e-10  2.8252876191913508e-10  2.8111750963988566e-10  3.1504171436051796e-10  3.8332474404119424e-10  4.8468135143542372e-10  6.1481695459102436e-10  7.6379727351544505e-10  9.1468517373628318e-10  1.0446247431987406e-09  1.1289822691338858e-09  1.1478859663539939e-09  1.0929518005071248e-09  9.7114945249548038e-10  8.0357848069826315e-10  6.1927984683136639e-10  4.4673162795974831e-10  3.0669525718219732e-10  2.0895525323724301e-10  1.5314154388765963e-10  1.3192271512666714e-10  1.3450467042372396e-10  1.4930759413989433e-10  1.6580274699890375e-10  1.7590736428708396e-10  1.7506781605132048e-10  1.6276511261024714e-10  1.4210014318726068e-10  1.1836573555557501e-10  9.6735097172418251e-11  7.8818539035658834e-11  5.7087684244819962e-11  2.2511032253347905e-11  3.1670235334781000e-12  3.3922055769454544e-13  3.6381995316998901e-14  4.8483434750350613e-15  4.2437162372397498e-15  5.6610046906206624e-14  3.7945941412554950e-13  1.7323415621266692e-13  1.2039739258254744e-14  4.3425131158898725e-16  1.9751011390392070e-16  9.2832684968537823e-16  8.3543637512672613e-15  1.4104060587397964e-13  2.6460547710656357e-12  4.5649276171734606e-11  4.3152072078016297e-10  1.1637616725307005e-09  1.4860131302245264e-09  1.4656466240682972e-09  1.2981062660674174e-09  1.0765699382896360e-09  8.5596459378378095e-10  7.0491179963871962e-10  9.0548933711930929e-10  3.2617434301032815e-09  1.9935601893042214e-08  1.3341324321594209e-07  9.0512084042586013e-07  6.1726462763760790e-06  4.2307162498550816e-05  2.9170005946388080e-04  2.0245404323084386e-03  1.4092167008153883e-02  9.5708430056357874e-02  4.6055536710974321e-01  8.6656775283784893e-01  9.7142681196553715e-01  9.9288088055025170e-01  9.9794623049208242e-01  9.9929703376771062e-01  9.9970140427335830e-01  9.9983830350583047e-01  9.9988757030232911e-01  9.9990026157378009e-01  2.9370848296010075e-09  2.8312763792664845e-09  2.5385852834813870e-09  2.1252597054361401e-09  1.6788445675975406e-09  1.2843518487730914e-09  1.0053702070982660e-09  8.7442561713494836e-10  8.9205686315607577e-10  1.0316204619090059e-09  1.2471742099454357e-09  1.4831622096333456e-09  1.6851877983943111e-09  1.8104703229646726e-09  1.8356132604890803e-09  1.7593803547523587e-09  1.5997278372087315e-09  1.3865327352655823e-09  1.1528945500487649e-09  9.2781841809174923e-10  7.3189147001635385e-10  5.7617789692847864e-10  4.6363259158645191e-10  3.9195186280565709e-10  3.5674465612710344e-10  3.5406496097485757e-10  3.8164818313468844e-10  4.3860405575392745e-10  5.2375782286562947e-10  6.3322181023832067e-10  7.5808587847262378e-10  8.8330257370878744e-10  9.8877810680940931e-10  1.0531338175381392e-09  1.0594802688415914e-09  1.0012240642407762e-09  8.8526910942806876e-10  7.3074359883167016e-10  5.6344691200429692e-10  4.0837216442653314e-10  2.8349397241125565e-10  1.9699914864940910e-10  1.4808743162853489e-10  1.2983507029777628e-10  1.3232459593749079e-10  1.4506125457331863e-10  1.5864740231157901e-10  1.6603715746297015e-10  1.6346399197711246e-10  1.5080856868749472e-10  1.3113220088244664e-10  1.0933931690856580e-10  9.0157280698223849e-11  7.5451477022347888e-11  6.0330345001591507e-11  3.3527601857900211e-11  7.8342107182162163e-12  1.1099123814607267e-12  1.9890902203399301e-13  5.2910502236584185e-14  6.5936355204297267e-14  9.0179186439969530e-13  3.7259238870540553e-12  1.5218894258925188e-12  1.1407905775835730e-13  7.0610296719194149e-15  1.5194019947573847e-15  5.5906242047756923e-15  4.0132931418822244e-14  5.4520664691005586e-13  6.6647936190723341e-12  8.9990273260611278e-11  5.6535086908905604e-10  1.1608735364267326e-09  1.3820373815185308e-09  1.3498406024846170e-09  1.2016083789065921e-09  1.0089480757654474e-09  8.1823988702316866e-10  6.8950182778758782e-10  8.6800985932541527e-10  2.9045113713840498e-09  1.7119124829767447e-08  1.1243487931081367e-07  7.4923070146896513e-07  5.0016014549048879e-06  3.3368753759816658e-05  2.2205002166624703e-04  1.4672098265724547e-03  9.5094116479759443e-03  5.8445308322238237e-02  3.0236698552205399e-01  7.6164278884471093e-01  9.4302675224896138e-01  9.8359615261554889e-01  9.9443678008328862e-01  9.9772582274763455e-01  9.9887049501817160e-01  9.9931167876261506e-01  9.9948723979802534e-01  9.9953500097826498e-01  2.4972659508269816e-09  2.4108533012984519e-09  2.1712025862589345e-09  1.8310420239008792e-09  1.4607632985096830e-09  1.1298192560189099e-09  8.9146703177411995e-10  7.7441100132687662e-10  7.8130535777599461e-10  8.9206580740651989e-10  1.0699941931153977e-09  1.2696515946907952e-09  1.4458068972827860e-09  1.5622347957879719e-09  1.5983693805590379e-09  1.5518779579963974e-09  1.4364725313310484e-09  1.2760655384134929e-09  1.0975890362878144e-09  9.2480976270323317e-10  7.7455413198801887e-10  6.5563635246474955e-10  5.6998772817257205e-10  5.1510696918549059e-10  4.8685703221074805e-10  4.8172455112477680e-10  4.9791432772337153e-10  5.3504334553192124e-10  5.9263422179779748e-10  6.6797961765012388e-10  7.5419668339828454e-10  8.3938507839456365e-10  9.0766523070833097e-10  9.4236545987922043e-10  9.3071390246964717e-10  8.6839032811594226e-10  7.6186342279465816e-10  6.2712819239496910e-10  4.8510993498526441e-10  3.5566730180565943e-10  2.5271768526351132e-10  1.8215936936782192e-10  1.4263659010710742e-10  1.2792609445819436e-10  1.2952119282619479e-10  1.3864066258831852e-10  1.4762822072090434e-10  1.5097321796889349e-10  1.4600607384085949e-10  1.3308711021105376e-10  1.1510290006454633e-10  9.6294615297668911e-11  8.0645449723386148e-11  7.0020388751740848e-11  6.1988569211136124e-11  4.8126080672231665e-11  2.3735354830598843e-11  6.8877957649180018e-12  2.0713177530150855e-12  1.2453445307166266e-12  2.6947466179535586e-12  1.0943781029627482e-11  2.0989823773844024e-11  1.0550305396181504e-11  1.3342825466018915e-12  1.5454150940021634e-13  5.7065773153877342e-14  8.7786681990360475e-14  3.9708722825380515e-13  2.8758926159329002e-12  2.6063151746619345e-11  2.1239928922627348e-10  7.0870526316852920e-10  1.0923812129459586e-09  1.2143412692164201e-09  1.1770442994158757e-09  1.0596183707597748e-09  9.1075149025164034e-10  7.6612723045302799e-10  6.7383237907508323e-10  8.2793440881401310e-10  2.4331828772597496e-09  1.3340007833077680e-08  8.4662085628818676e-08  5.4742413889769647e-07  3.5289835381200282e-06  2.2542869429631593e-05  1.4184816263914526e-04  8.7053772031164378e-04  5.1190104004740595e-03  2.8135683730312552e-02  1.4021936233587287e-01  5.0143637433625277e-01  8.4155558226590921e-01  9.5005951468127259e-01  9.8063184069790243e-01  9.9111093060412436e-01  9.9510875043134139e-01  9.9679835052086241e-01  9.9752037264531412e-01  9.9772455590688292e-01  1.9942079395939608e-09  1.9293602194479911e-09  1.7489537103939340e-09  1.4912944458068309e-09  1.2081898004629034e-09  9.5177615103077417e-10  7.6322521931642525e-10  6.6602824390133588e-10  6.6420037869831413e-10  7.4423029397831127e-10  8.7942917824405696e-10  1.0358442075966083e-09  1.1791272358480258e-09  1.2813523646092442e-09  1.3262349890304204e-09  1.3112612103703156e-09  1.2461662746396507e-09  1.1485394249010376e-09  1.0382755186665391e-09  9.3267210701849483e-10  8.4334809132013855e-10  7.7534121496211685e-10  7.2810282790532608e-10  6.9772598253870923e-10  6.7955295181638978e-10  6.7029679934212606e-10  6.6902215698662232e-10  6.7674649128974977e-10  6.9490956350516455e-10  7.2333802425190426e-10  7.5850296114306318e-10  7.9282900590070958e-10  8.1557726963088733e-10  8.1536044726876429e-10  7.8367328590765929e-10  7.1816371403784330e-10  6.2416472820893345e-10  5.1358662974843242e-10  4.0147485892097443e-10  3.0168822072800280e-10  2.2350289803000555e-10  1.7028560765044385e-10  1.4020337418391514e-10  1.2805667673025938e-10  1.2721117563128210e-10  1.3108409374134230e-10  1.3416368194530240e-10  1.3271909826863545e-10  1.2523157582163817e-10  1.1242446728464638e-10  9.6787294669181643e-11  8.1654476829087557e-11  7.0053792412817459e-11  6.3549312451589258e-11  6.1185194764397567e-11  5.8727459667907955e-11  4.9734450334276031e-11  3.3892887987532739e-11  2.1936269639126553e-11  2.0407780787949480e-11  3.1266101420255221e-11  5.2277800085009386e-11  6.3443458012550225e-11  4.6097309021316747e-11  1.5562629204190602e-11  3.3765548902481692e-12  1.2804576417476072e-12  1.4427598448734422e-12  4.1065700058378909e-12  1.9926421892064189e-11  1.1215222094636984e-10  4.0180741604374611e-10  7.4630258325847703e-10  9.4525097934136554e-10  1.0043135497679216e-09  9.7393507714958137e-10  8.9533743081157932e-10  7.9966345796202861e-10  7.1267014993481458e-10  6.6979819517859690e-10  8.1040529614750964e-10  1.9796036898950165e-09  9.5318517970551407e-09  5.7138361511314209e-08  3.5382549744979737e-07  2.1750216104474978e-06  1.3116140892024135e-05  7.6836790604045360e-05  4.3160861196666798e-04  2.2874685799680636e-03  1.1251530874826630e-02  4.9749642102357272e-02  1.9489056864317333e-01  5.3186468540527410e-01  8.1220800290958206e-01  9.2271582700083787e-01  9.6160533055097064e-01  9.7743300401138500e-01  9.8459368550476722e-01  9.8781871262453314e-01  9.8875165255847819e-01  1.5024559146700560e-09  1.4579052138953252e-09  1.3336294600479880e-09  1.1552045053171677e-09  9.5766242687056135e-10  7.7690403690248032e-10  6.4198548376208753e-10  5.7018505662561832e-10  5.6536086016653835e-10  6.1904036549653143e-10  7.1339280735570682e-10  8.2543570546201635e-10  9.3193184176190922e-10  1.0141904700158868e-09  1.0616705248572103e-09  1.0733612482173882e-09  1.0565624906590661e-09  1.0236003496155272e-09  9.8767397346304671e-10  9.5913291257231779e-10  9.4312683645004440e-10  9.3904959095961617e-10  9.4171958913632104e-10  9.4382218267798642e-10  9.3878770448768428e-10  9.2311102173219553e-10  8.9730161073583550e-10  8.6519365968317779e-10  8.3200223328946055e-10  8.0195624991752537e-10  7.7640527874517691e-10  7.5305591082119830e-10  7.2660979954315226e-10  6.9064582064386320e-10  6.4014929845709132e-10  5.7375079685648036e-10  4.9471576211255513e-10  4.1018198325272098e-10  3.2893851900053594e-10  2.5873948166752181e-10  2.0430348896673788e-10  1.6667053506394616e-10  1.4382177701922860e-10  1.3193232029624155e-10  1.2659979883296502e-10  1.2372978044195921e-10  1.2009865609992484e-10  1.1371748853169893e-10  1.0402606179405531e-10  9.1843859466073198e-11  7.9020690720563636e-11  6.7841556583012898e-11  6.0339449172327552e-11  5.7676424273509750e-11  5.9689240589965935e-11  6.4681721713501913e-11  6.9765457650425470e-11  7.2460674713962944e-11  7.4371716963718217e-11  8.1789846671813085e-11  9.7671096744467614e-11  1.1531066312835229e-10  1.2371030983623490e-10  1.1320783601728417e-10  7.9118816406773972e-11  4.1378651551400277e-11  2.3503131978888863e-11  2.2794157735864586e-11  4.1462873470167382e-11  1.0987134456411277e-10  2.7197578373292548e-10  4.8636230332948104e-10  6.5767533286036205e-10  7.5358225161039956e-10  7.8386860020891446e-10  7.6955267679937169e-10  7.3269280669909088e-10  6.9367340582094327e-10  6.7090760280097932e-10  6.8878836654439678e-10  8.3762653754591541e-10  1.6511985884812362e-09  6.4038707933504613e-09  3.4825035992585147e-08  2.0313427246073609e-07  1.1768980959649667e-06  6.6269437793851854e-06  3.5797178339358244e-05  1.8307865213594226e-04  8.7444518066159317e-04  3.8303209568507097e-03  1.5278444794603066e-02  5.3676132819759192e-02  1.6805903343890088e-01  4.0702478567110761e-01  6.6635886524057342e-01  8.1582426009662390e-01  8.8741173106742366e-01  9.2217362566700045e-01  9.3804168776158736e-01  9.4259694268607930e-01  1.0801585062163354e-09  1.0521877280970136e-09  9.7420339444515220e-10  8.6240829177324440e-10  7.3906061167309693e-10  6.2700040054591907e-10  5.4462048283837111e-10  5.0259107666320353e-10  5.0281163182625842e-10  5.3931478300559536e-10  6.0053415669243334e-10  6.7237568374142611e-10  7.4157649869878281e-10  7.9873309546892499e-10  8.4027388362239528e-10  8.6879133829910845e-10  8.9160302239555115e-10  9.1797704430559360e-10  9.5584728252158404e-10  1.0089254206163505e-09  1.0749716123077479e-09  1.1457419886717599e-09  1.2087918982821335e-09  1.2507971014636894e-09  1.2614242548364151e-09  1.2363716125395116e-09  1.1784002839397769e-09  1.0960207542007891e-09  1.0005260606389717e-09  9.0265832394157086e-10  8.1009643607823558e-10  7.2638861791451737e-10  6.5134080804391186e-10  5.8245492128857109e-10  5.1679732333035867e-10  4.5261654404002955e-10  3.9014638317311285e-10  3.3136683943372973e-10  2.7896149232348996e-10  2.3506811782982766e-10  2.0044571881179233e-10  1.7436150309410221e-10  1.5506377758377438e-10  1.4044681221609986e-10  1.2856134025111290e-10  1.1786285155617111e-10  1.0729236546831625e-10  9.6319050518110681e-11  8.4982278504365737e-11  7.3880592665627276e-11  6.4050098312296695e-11  5.6738496543647927e-11  5.3138704969008527e-11  5.4145482984536051e-11  6.0157989336518268e-11  7.0940757726301472e-11  8.5623137476885435e-11  1.0302587962659093e-10  1.2232923106358391e-10  1.4325474574307580e-10  1.6448117918700739e-10  1.8232339818574290e-10  1.9208804870677309e-10  1.8954061319744704e-10  1.7210054079935369e-10  1.4372574356215387e-10  1.2059814866323723e-10  1.2001204411883522e-10  1.5342927770629297e-10  2.2762638255287236e-10  3.3087079893852892e-10  4.3356414866125836e-10  5.1321440258952219e-10  5.6197993146371869e-10  5.8345566598753453e-10  5.8834844576277058e-10  5.9105813543271947e-10  6.0697397574273752e-10  6.5053849996470828e-10  7.3826597551667049e-10  9.2238520600045551e-10  1.5038241522791725e-09  4.2749925070927316e-09  1.9536342167120120e-08  1.0441140143157788e-07  5.6327507472701343e-07  2.9389852937408985e-06  1.4575781482500214e-05  6.7830973271545218e-05  2.9227374233277675e-04  1.1555274906153742e-03  4.1221095259341830e-03  1.3304494178427433e-02  3.7973629568020500e-02  9.6327418114717775e-02  2.0833546331672606e-01  3.6125264351530573e-01  5.1464107187732100e-01  6.2686802152842791e-01  6.8713771505576215e-01  7.0532412678147993e-01  7.6083795270458323e-10  7.4454299212917642e-10  6.9964932872602540e-10  6.3692843400060891e-10  5.7076879457229695e-10  5.1518920519942315e-10  4.8036513996318501e-10  4.7064834510945822e-10  4.8439311725133689e-10  5.1531027239539316e-10  5.5478344384543264e-10  5.9454885785624902e-10  6.2917078451697801e-10  6.5775892883485562e-10  6.8445990742596680e-10  7.1751408652536937e-10  7.6704911313159218e-10  8.4210461011932254e-10  9.4752760101266076e-10  1.0813962143395002e-09  1.2336493899555187e-09  1.3866153732992791e-09  1.5179045618498304e-09  1.6054081053437437e-09  1.6330564157115751e-09  1.5952165048627453e-09  1.4978968535767083e-09  1.3563422082335471e-09  1.1902723509387656e-09  1.0188552406236899e-09  8.5712356187746659e-10  7.1447275464859805e-10  5.9492734443991311e-10  4.9844317451443450e-10  4.2253336749224916e-10  3.6370114775571569e-10  3.1838609535976835e-10  2.8336382506308619e-10  2.5576017727442414e-10  2.3296449879497634e-10  2.1267680845599634e-10  1.9313196881867886e-10  1.7335041014444633e-10  1.5321139472067426e-10  1.3325870149430249e-10  1.1432640099299965e-10  9.7175263948072755e-11  8.2297465109729728e-11  6.9927152235131448e-11  6.0185580229419753e-11  5.3256747017598967e-11  4.9523491595728691e-11  4.9635745080479467e-11  5.4487446911672792e-11  6.5061844435134973e-11  8.2121840723850605e-11  1.0580153352355068e-10  1.3524683291932182e-10  1.6844629970616134e-10  2.0225643418301705e-10  2.3261808835010526e-10  2.5515824081567473e-10  2.6624937835546078e-10  2.6415002169275311e-10  2.4994845130132072e-10  2.2848787445930228e-10  2.0874671859253590e-10  2.0154120299121897e-10  2.1410224719746587e-10  2.4610274475001070e-10  2.9002256032428021e-10  3.3545692793047121e-10  3.7395250067390410e-10  4.0221422543029103e-10  4.2316161119666332e-10  4.4543726542776687e-10  4.8189389169113833e-10  5.4727519340077987e-10  6.5551512925052344e-10  8.1912768440337651e-10  1.0645640151745747e-09  1.5391649684734528e-09  3.1143275762317038e-09  1.0586217980975588e-08  4.8903484851344166e-08  2.4112469184917880e-07  1.1585555044210772e-06  5.2688100178596238e-06  2.2351842700903992e-05  8.7595309610991986e-05  3.1364341254438359e-04  1.0226061231955446e-03  3.0020786348486121e-03  7.9195069223439944e-03  1.8564706568412425e-02  3.8424362181808350e-02  7.1192049930309406e-02  1.1646442647403524e-01  1.6413639430959623e-01  1.9927646933471951e-01  2.1195577486545622e-01  5.5303942659812650e-10  5.4346321484439580e-10  5.1815901920856060e-10  4.8609794317062334e-10  4.5847859918662500e-10  4.4481375414107764e-10  4.4992004559324590e-10  4.7272763600519328e-10  5.0703848371187859e-10  5.4377306030734791e-10  5.7398768507491612e-10  5.9190647523067926e-10  5.9724481121185250e-10  5.9619798600745241e-10  6.0073282983256484e-10  6.2626348608436655e-10  6.8822413390614281e-10  7.9823671909127147e-10  9.6049841060140321e-10  1.1689351397772830e-09  1.4058268752900442e-09  1.64288763991