<?xml version="1.0"?>
<VTKFile type="UnstructuredGrid"  version="0.1"  >
<UnstructuredGrid>
<Piece  NumberOfPoints="20201" NumberOfCells="40000">
<Points>
<DataArray  type="Float64"  NumberOfComponents="3"  format="ascii">0 0 0  2 0 0  4 0 0  6 0 0  8 0 0  10 0 0  12 0 0  14 0 0  16 0 0  18 0 0  20 0 0  22 0 0  24 0 0  26 0 0  28 0 0  30 0 0  32 0 0  34 0 0  36 0 0  38 0 0  40 0 0  42 0 0  44 0 0  46 0 0  48 0 0  50 0 0  52 0 0  54 0 0  56 0 0  58 0 0  60 0 0  62 0 0  64 0 0  66 0 0  68 0 0  70 0 0  72 0 0  74 0 0  76 0 0  78 0 0  80 0 0  82 0 0  84 0 0  86 0 0  88 0 0  90 0 0  92 0 0  94 0 0  96 0 0  98 0 0  100 0 0  102 0 0  104 0 0  106 0 0  108 0 0  110 0 0  112 0 0  114 0 0  116 0 0  118 0 0  120 0 0  122 0 0  124 0 0  126 0 0  128 0 0  130 0 0  132 0 0  134 0 0  136 0 0  138 0 0  140 0 0  142 0 0  144 0 0  146 0 0  148 0 0  150 0 0  152 0 0  154 0 0  156 0 0  158 0 0  160 0 0  162 0 0  164 0 0  166 0 0  168 0 0  170 0 0  172 0 0  174 0 0  176 0 0  178 0 0  180 0 0  182 0 0  184 0 0  186 0 0  188 0 0  190 0 0  192 0 0  194 0 0  196 0 0  198 0 0  200 0 0  0 2 0  2 2 0  4 2 0  6 2 0  8 2 0  10 2 0  12 2 0  14 2 0  16 2 0  18 2 0  20 2 0  22 2 0  24 2 0  26 2 0  28 2 0  30 2 0  32 2 0  34 2 0  36 2 0  38 2 0  40 2 0  42 2 0  44 2 0  46 2 0  48 2 0  50 2 0  52 2 0  54 2 0  56 2 0  58 2 0  60 2 0  62 2 0  64 2 0  66 2 0  68 2 0  70 2 0  72 2 0  74 2 0  76 2 0  78 2 0  80 2 0  82 2 0  84 2 0  86 2 0  88 2 0  90 2 0  92 2 0  94 2 0  96 2 0  98 2 0  100 2 0  102 2 0  104 2 0  106 2 0  108 2 0  110 2 0  112 2 0  114 2 0  116 2 0  118 2 0  120 2 0  122 2 0  124 2 0  126 2 0  128 2 0  130 2 0  132 2 0  134 2 0  136 2 0  138 2 0  140 2 0  142 2 0  144 2 0  146 2 0  148 2 0  150 2 0  152 2 0  154 2 0  156 2 0  158 2 0  160 2 0  162 2 0  164 2 0  166 2 0  168 2 0  170 2 0  172 2 0  174 2 0  176 2 0  178 2 0  180 2 0  182 2 0  184 2 0  186 2 0  188 2 0  190 2 0  192 2 0  194 2 0  196 2 0  198 2 0  200 2 0  0 4 0  2 4 0  4 4 0  6 4 0  8 4 0  10 4 0  12 4 0  14 4 0  16 4 0  18 4 0  20 4 0  22 4 0  24 4 0  26 4 0  28 4 0  30 4 0  32 4 0  34 4 0  36 4 0  38 4 0  40 4 0  42 4 0  44 4 0  46 4 0  48 4 0  50 4 0  52 4 0  54 4 0  56 4 0  58 4 0  60 4 0  62 4 0  64 4 0  66 4 0  68 4 0  70 4 0  72 4 0  74 4 0  76 4 0  78 4 0  80 4 0  82 4 0  84 4 0  86 4 0  88 4 0  90 4 0  92 4 0  94 4 0  96 4 0  98 4 0  100 4 0  102 4 0  104 4 0  106 4 0  108 4 0  110 4 0  112 4 0  114 4 0  116 4 0  118 4 0  120 4 0  122 4 0  124 4 0  126 4 0  128 4 0  130 4 0  132 4 0  134 4 0  136 4 0  138 4 0  140 4 0  142 4 0  144 4 0  146 4 0  148 4 0  150 4 0  152 4 0  154 4 0  156 4 0  158 4 0  160 4 0  162 4 0  164 4 0  166 4 0  168 4 0  170 4 0  172 4 0  174 4 0  176 4 0  178 4 0  180 4 0  182 4 0  184 4 0  186 4 0  188 4 0  190 4 0  192 4 0  194 4 0  196 4 0  198 4 0  200 4 0  0 6 0  2 6 0  4 6 0  6 6 0  8 6 0  10 6 0  12 6 0  14 6 0  16 6 0  18 6 0  20 6 0  22 6 0  24 6 0  26 6 0  28 6 0  30 6 0  32 6 0  34 6 0  36 6 0  38 6 0  40 6 0  42 6 0  44 6 0  46 6 0  48 6 0  50 6 0  52 6 0  54 6 0  56 6 0  58 6 0  60 6 0  62 6 0  64 6 0  66 6 0  68 6 0  70 6 0  72 6 0  74 6 0  76 6 0  78 6 0  80 6 0  82 6 0  84 6 0  86 6 0  88 6 0  90 6 0  92 6 0  94 6 0  96 6 0  98 6 0  100 6 0  102 6 0  104 6 0  106 6 0  108 6 0  110 6 0  112 6 0  114 6 0  116 6 0  118 6 0  120 6 0  122 6 0  124 6 0  126 6 0  128 6 0  130 6 0  132 6 0  134 6 0  136 6 0  138 6 0  140 6 0  142 6 0  144 6 0  146 6 0  148 6 0  150 6 0  152 6 0  154 6 0  156 6 0  158 6 0  160 6 0  162 6 0  164 6 0  166 6 0  168 6 0  170 6 0  172 6 0  174 6 0  176 6 0  178 6 0  180 6 0  182 6 0  184 6 0  186 6 0  188 6 0  190 6 0  192 6 0  194 6 0  196 6 0  198 6 0  200 6 0  0 8 0  2 8 0  4 8 0  6 8 0  8 8 0  10 8 0  12 8 0  14 8 0  16 8 0  18 8 0  20 8 0  22 8 0  24 8 0  26 8 0  28 8 0  30 8 0  32 8 0  34 8 0  36 8 0  38 8 0  40 8 0  42 8 0  44 8 0  46 8 0  48 8 0  50 8 0  52 8 0  54 8 0  56 8 0  58 8 0  60 8 0  62 8 0  64 8 0  66 8 0  68 8 0  70 8 0  72 8 0  74 8 0  76 8 0  78 8 0  80 8 0  82 8 0  84 8 0  86 8 0  88 8 0  90 8 0  92 8 0  94 8 0  96 8 0  98 8 0  100 8 0  102 8 0  104 8 0  106 8 0  108 8 0  110 8 0  112 8 0  114 8 0  116 8 0  118 8 0  120 8 0  122 8 0  124 8 0  126 8 0  128 8 0  130 8 0  132 8 0  134 8 0  136 8 0  138 8 0  140 8 0  142 8 0  144 8 0  146 8 0  148 8 0  150 8 0  152 8 0  154 8 0  156 8 0  158 8 0  160 8 0  162 8 0  164 8 0  166 8 0  168 8 0  170 8 0  172 8 0  174 8 0  176 8 0  178 8 0  180 8 0  182 8 0  184 8 0  186 8 0  188 8 0  190 8 0  192 8 0  194 8 0  196 8 0  198 8 0  200 8 0  0 10 0  2 10 0  4 10 0  6 10 0  8 10 0  10 10 0  12 10 0  14 10 0  16 10 0  18 10 0  20 10 0  22 10 0  24 10 0  26 10 0  28 10 0  30 10 0  32 10 0  34 10 0  36 10 0  38 10 0  40 10 0  42 10 0  44 10 0  46 10 0  48 10 0  50 10 0  52 10 0  54 10 0  56 10 0  58 10 0  60 10 0  62 10 0  64 10 0  66 10 0  68 10 0  70 10 0  72 10 0  74 10 0  76 10 0  78 10 0  80 10 0  82 10 0  84 10 0  86 10 0  88 10 0  90 10 0  92 10 0  94 10 0  96 10 0  98 10 0  100 10 0  102 10 0  104 10 0  106 10 0  108 10 0  110 10 0  112 10 0  114 10 0  116 10 0  118 10 0  120 10 0  122 10 0  124 10 0  126 10 0  128 10 0  130 10 0  132 10 0  134 10 0  136 10 0  138 10 0  140 10 0  142 10 0  144 10 0  146 10 0  148 10 0  150 10 0  152 10 0  154 10 0  156 10 0  158 10 0  160 10 0  162 10 0  164 10 0  166 10 0  168 10 0  170 10 0  172 10 0  174 10 0  176 10 0  178 10 0  180 10 0  182 10 0  184 10 0  186 10 0  188 10 0  190 10 0  192 10 0  194 10 0  196 10 0  198 10 0  200 10 0  0 12 0  2 12 0  4 12 0  6 12 0  8 12 0  10 12 0  12 12 0  14 12 0  16 12 0  18 12 0  20 12 0  22 12 0  24 12 0  26 12 0  28 12 0  30 12 0  32 12 0  34 12 0  36 12 0  38 12 0  40 12 0  42 12 0  44 12 0  46 12 0  48 12 0  50 12 0  52 12 0  54 12 0  56 12 0  58 12 0  60 12 0  62 12 0  64 12 0  66 12 0  68 12 0  70 12 0  72 12 0  74 12 0  76 12 0  78 12 0  80 12 0  82 12 0  84 12 0  86 12 0  88 12 0  90 12 0  92 12 0  94 12 0  96 12 0  98 12 0  100 12 0  102 12 0  104 12 0  106 12 0  108 12 0  110 12 0  112 12 0  114 12 0  116 12 0  118 12 0  120 12 0  122 12 0  124 12 0  126 12 0  128 12 0  130 12 0  132 12 0  134 12 0  136 12 0  138 12 0  140 12 0  142 12 0  144 12 0  146 12 0  148 12 0  150 12 0  152 12 0  154 12 0  156 12 0  158 12 0  160 12 0  162 12 0  164 12 0  166 12 0  168 12 0  170 12 0  172 12 0  174 12 0  176 12 0  178 12 0  180 12 0  182 12 0  184 12 0  186 12 0  188 12 0  190 12 0  192 12 0  194 12 0  196 12 0  198 12 0  200 12 0  0 14 0  2 14 0  4 14 0  6 14 0  8 14 0  10 14 0  12 14 0  14 14 0  16 14 0  18 14 0  20 14 0  22 14 0  24 14 0  26 14 0  28 14 0  30 14 0  32 14 0  34 14 0  36 14 0  38 14 0  40 14 0  42 14 0  44 14 0  46 14 0  48 14 0  50 14 0  52 14 0  54 14 0  56 14 0  58 14 0  60 14 0  62 14 0  64 14 0  66 14 0  68 14 0  70 14 0  72 14 0  74 14 0  76 14 0  78 14 0  80 14 0  82 14 0  84 14 0  86 14 0  88 14 0  90 14 0  92 14 0  94 14 0  96 14 0  98 14 0  100 14 0  102 14 0  104 14 0  106 14 0  108 14 0  110 14 0  112 14 0  114 14 0  116 14 0  118 14 0  120 14 0  122 14 0  124 14 0  126 14 0  128 14 0  130 14 0  132 14 0  134 14 0  136 14 0  138 14 0  140 14 0  142 14 0  144 14 0  146 14 0  148 14 0  150 14 0  152 14 0  154 14 0  156 14 0  158 14 0  160 14 0  162 14 0  164 14 0  166 14 0  168 14 0  170 14 0  172 14 0  174 14 0  176 14 0  178 14 0  180 14 0  182 14 0  184 14 0  186 14 0  188 14 0  190 14 0  192 14 0  194 14 0  196 14 0  198 14 0  200 14 0  0 16 0  2 16 0  4 16 0  6 16 0  8 16 0  10 16 0  12 16 0  14 16 0  16 16 0  18 16 0  20 16 0  22 16 0  24 16 0  26 16 0  28 16 0  30 16 0  32 16 0  34 16 0  36 16 0  38 16 0  40 16 0  42 16 0  44 16 0  46 16 0  48 16 0  50 16 0  52 16 0  54 16 0  56 16 0  58 16 0  60 16 0  62 16 0  64 16 0  66 16 0  68 16 0  70 16 0  72 16 0  74 16 0  76 16 0  78 16 0  80 16 0  82 16 0  84 16 0  86 16 0  88 16 0  90 16 0  92 16 0  94 16 0  96 16 0  98 16 0  100 16 0  102 16 0  104 16 0  106 16 0  108 16 0  110 16 0  112 16 0  114 16 0  116 16 0  118 16 0  120 16 0  122 16 0  124 16 0  126 16 0  128 16 0  130 16 0  132 16 0  134 16 0  136 16 0  138 16 0  140 16 0  142 16 0  144 16 0  146 16 0  148 16 0  150 16 0  152 16 0  154 16 0  156 16 0  158 16 0  160 16 0  162 16 0  164 16 0  166 16 0  168 16 0  170 16 0  172 16 0  174 16 0  176 16 0  178 16 0  180 16 0  182 16 0  184 16 0  186 16 0  188 16 0  190 16 0  192 16 0  194 16 0  196 16 0  198 16 0  200 16 0  0 18 0  2 18 0  4 18 0  6 18 0  8 18 0  10 18 0  12 18 0  14 18 0  16 18 0  18 18 0  20 18 0  22 18 0  24 18 0  26 18 0  28 18 0  30 18 0  32 18 0  34 18 0  36 18 0  38 18 0  40 18 0  42 18 0  44 18 0  46 18 0  48 18 0  50 18 0  52 18 0  54 18 0  56 18 0  58 18 0  60 18 0  62 18 0  64 18 0  66 18 0  68 18 0  70 18 0  72 18 0  74 18 0  76 18 0  78 18 0  80 18 0  82 18 0  84 18 0  86 18 0  88 18 0  90 18 0  92 18 0  94 18 0  96 18 0  98 18 0  100 18 0  102 18 0  104 18 0  106 18 0  108 18 0  110 18 0  112 18 0  114 18 0  116 18 0  118 18 0  120 18 0  122 18 0  124 18 0  126 18 0  128 18 0  130 18 0  132 18 0  134 18 0  136 18 0  138 18 0  140 18 0  142 18 0  144 18 0  146 18 0  148 18 0  150 18 0  152 18 0  154 18 0  156 18 0  158 18 0  160 18 0  162 18 0  164 18 0  166 18 0  168 18 0  170 18 0  172 18 0  174 18 0  176 18 0  178 18 0  180 18 0  182 18 0  184 18 0  186 18 0  188 18 0  190 18 0  192 18 0  194 18 0  196 18 0  198 18 0  200 18 0  0 20 0  2 20 0  4 20 0  6 20 0  8 20 0  10 20 0  12 20 0  14 20 0  16 20 0  18 20 0  20 20 0  22 20 0  24 20 0  26 20 0  28 20 0  30 20 0  32 20 0  34 20 0  36 20 0  38 20 0  40 20 0  42 20 0  44 20 0  46 20 0  48 20 0  50 20 0  52 20 0  54 20 0  56 20 0  58 20 0  60 20 0  62 20 0  64 20 0  66 20 0  68 20 0  70 20 0  72 20 0  74 20 0  76 20 0  78 20 0  80 20 0  82 20 0  84 20 0  86 20 0  88 20 0  90 20 0  92 20 0  94 20 0  96 20 0  98 20 0  100 20 0  102 20 0  104 20 0  106 20 0  108 20 0  110 20 0  112 20 0  114 20 0  116 20 0  118 20 0  120 20 0  122 20 0  124 20 0  126 20 0  128 20 0  130 20 0  132 20 0  134 20 0  136 20 0  138 20 0  140 20 0  142 20 0  144 20 0  146 20 0  148 20 0  150 20 0  152 20 0  154 20 0  156 20 0
[...]
<PointData  Scalars="f_271-3"> 
<DataArray  type="Float64"  Name="f_271-3"  format="ascii">1.4165355773892330e-01  1.3316644243072862e-01  1.0890365608893153e-01  7.4416826984205098e-02  4.0440685188051904e-02  1.6430315597510511e-02  5.2167611427755218e-03  5.8620364771857295e-03  1.6929658211907152e-02  3.5613223213275688e-02  5.7338251156906925e-02  7.7916337352931103e-02  9.3815124852623000e-02  1.0128636255354373e-01  9.8180080033108144e-02  8.6020831293837322e-02  6.8808604741444929e-02  5.0410448215635083e-02  3.3518899739801225e-02  1.9825329603564746e-02  1.0137090934979961e-02  4.3166223647834231e-03  1.4603481625038058e-03  3.8316715434141678e-04  1.1460251090325629e-04  1.9294030177842853e-04  7.2413415264453327e-04  2.2433180737178688e-03  5.4605229172244489e-03  1.0990682096171222e-02  1.9135299560400505e-02  2.9699393629115247e-02  4.1715996463361799e-02  5.3022360700663934e-02  6.0193785510553863e-02  5.9874017013058882e-02  5.1292778512412582e-02  3.7348526701210812e-02  2.2775750140584403e-02  1.1507511555053264e-02  4.9462174919824671e-03  1.8738351932403934e-03  5.9959557972943836e-04  5.5716326626186342e-04  1.8116712911885929e-03  4.1330880652434903e-03  6.8026067035261151e-03  8.9028347310940743e-03  9.6906894359461253e-03  8.9242230717936650e-03  6.9461074355314277e-03  4.4616565921177832e-03  2.2228584306182228e-03  8.0721918857811316e-04  5.1329563375418030e-04  1.3272421464718151e-03  2.9251662422657833e-03  4.6894030424221977e-03  5.7777108481177749e-03  5.4614939255428086e-03  3.9935547881814418e-03  2.6353613317121006e-03  1.6854983515246749e-03  7.6353692545529930e-04  3.2625454476503912e-04  7.9257738680689862e-04  2.1776779891477262e-03  5.1987201037017403e-03  1.2008897869288692e-02  2.5389164788195643e-02  4.5291696915459721e-02  6.7293664138859691e-02  8.3751533331903036e-02  8.8431546439303607e-02  8.1312092536139177e-02  6.7132719805514773e-02  5.0767141430939591e-02  3.5208855933039900e-02  2.2002189927918466e-02  1.1934098108227832e-02  5.2648231517672560e-03  1.7073389280364423e-03  4.6529301439597663e-04  4.5118499533508641e-04  6.4720587579330526e-04  5.3477106138845234e-04  4.5496556548062895e-04  1.6819415443641613e-03  6.2015666387928627e-03  1.6833372235987194e-02  3.9400100724657404e-02  9.2141833568187184e-02  2.4112588622853279e-01  5.6570749636871698e-01  8.2278839462850217e-01  9.3078959331724442e-01  9.8497635689783902e-01  1.0125908510770085e+00  1.0198909222423738e+00  1.0116547003501486e+00  1.0030628916729094e+00  1.3578025033463850e-01  1.2815916671995692e-01  1.0590824708832437e-01  7.3653971464256007e-02  4.1166173694406651e-02  1.7451314208581651e-02  5.6245354082954651e-03  5.0743935891155046e-03  1.4585820632272524e-02  3.1827686711615684e-02  5.2664465734002470e-02  7.2792382980284023e-02  8.8468629805380131e-02  9.6103409582474514e-02  9.3735833489782164e-02  8.2733074215420602e-02  6.6746792591157358e-02  4.9403200224452722e-02  3.3298495477788091e-02  2.0093597802792688e-02  1.0611236424565306e-02  4.7848266698405093e-03  1.8165300214719690e-03  6.2016960455487714e-04  2.9078403445113773e-04  3.9183670999375938e-04  1.0170886526056843e-03  2.6611647163781930e-03  5.9759109102931404e-03  1.1507404293217656e-02  1.9480156605383291e-02  2.9617046263000671e-02  4.0887544158821121e-02  5.1164378185078616e-02  5.7270814351204381e-02  5.6274923411421603e-02  4.7694424752882013e-02  3.4321933881807917e-02  2.0559948896883559e-02  1.0073295598045772e-02  4.1167413330638327e-03  1.4488258898698880e-03  4.7407039677835241e-04  7.0313184802095799e-04  2.1829253884531248e-03  4.6181846788251220e-03  7.2464032953237206e-03  9.1566162603056132e-03  9.6681428400971509e-03  8.6397108939077847e-03  6.5046307766191414e-03  4.0085323996442435e-03  1.8902337995645611e-03  6.7975725086499351e-04  6.1380663534206135e-04  1.6176292804306028e-03  3.3208854783885766e-03  5.0910898528646860e-03  6.1283222298301665e-03  5.8023715129331107e-03  4.3568875342443643e-03  2.8808732273555349e-03  1.7343977691434735e-03  7.3933967152921970e-04  3.5766868099842487e-04  9.3380886912868672e-04  2.5031305434219274e-03  5.8113411012081315e-03  1.2818973166794322e-02  2.5702782143282466e-02  4.4191773316595635e-02  6.4311265824062394e-02  7.9273697336476018e-02  8.3584617573863082e-02  7.7163746395267074e-02  6.4145857578912321e-02  4.8923977955241026e-02  3.4303551606340653e-02  2.1778518038247239e-02  1.2119487051742815e-02  5.5974579853967556e-03  1.9804006263731961e-03  5.6768061825117940e-04  3.8274833390585525e-04  4.9891156919369066e-04  4.2918870749873679e-04  4.5870706862303985e-04  1.7372697105967664e-03  6.1261817709564103e-03  1.6325853635227976e-02  3.7656100533589289e-02  8.5397200317058067e-02  2.1235049462909480e-01  5.0439560855423693e-01  7.8250920103907606e-01  9.0706592183560242e-01  9.6691851315584221e-01  9.9786738163380606e-01  1.0078852068491844e+00  1.0018654473924700e+00  9.9434844354326013e-01  1.1795101610768763e-01  1.1231933521279422e-01  9.4941219948462510e-02  6.8548628212093343e-02  4.0654590472173721e-02  1.8832106952270330e-02  6.4905522548135428e-03  3.7557316198632558e-03  9.8984315569103833e-03  2.3476908547199440e-02  4.1480298721715027e-02  5.9860599860633974e-02  7.4658507502699673e-02  8.2571235158703238e-02  8.1977296100175109e-02  7.3860834085237789e-02  6.1041263967690308e-02  4.6517985974644134e-02  3.2595094003730715e-02  2.0817763020821226e-02  1.2017410009169933e-02  6.2850045730363365e-03  3.0876866370389950e-03  1.6068318525070361e-03  1.1246552065557669e-03  1.2789615375718947e-03  2.1272161882302161e-03  4.0420774069855753e-03  7.5023222651381194e-03  1.2859476002783938e-02  2.0141389338761095e-02  2.8894130617930194e-02  3.8007408600304327e-02  4.5570374530716336e-02  4.9131214958524759e-02  4.6794787944222503e-02  3.8663967948462885e-02  2.7155060353705560e-02  1.5755548114731989e-02  7.3249149453044060e-03  2.7192410305123989e-03  8.2148501185243424e-04  3.8740515402058059e-04  1.0831405622244569e-03  2.8702972458753131e-03  5.3247372479384341e-03  7.6505726878294891e-03  9.0239926440041154e-03  8.9523344944067614e-03  7.5081892165598510e-03  5.2581369524734465e-03  2.9528227218284346e-03  1.2378492085425325e-03  5.0596639439268155e-04  8.5447695438432760e-04  2.0963959083689799e-03  3.8030660995965553e-03  5.3732221329045593e-03  6.1674113245871005e-03  5.7946355683053596e-03  4.4788356977628879e-03  2.9261888399747193e-03  1.5667221137783244e-03  6.1304650061756207e-04  4.8053187517589359e-04  1.3967674015880332e-03  3.4767431798095466e-03  7.3882643305994622e-03  1.4413465583667436e-02  2.5558007631410730e-02  4.0258207537968223e-02  5.5586356860471295e-02  6.6828197845963083e-02  7.0239039671735615e-02  6.5618755413594021e-02  5.5673444509595375e-02  4.3572385469144770e-02  3.1571584129248445e-02  2.0991592696103685e-02  1.2553567652368607e-02  6.5568763550176877e-03  2.9027460852686440e-03  1.1236933857209268e-03  5.2127784637873999e-04  4.1025736374251107e-04  4.1556850333557580e-04  7.3475963262963409e-04  2.2535350864565343e-03  6.5109426534796094e-03  1.5821968206512285e-02  3.4323201580907438e-02  7.1768736246346901e-02  1.5666965368616895e-01  3.5801853669107547e-01  6.4932570269287482e-01  8.3023221152464455e-01  9.1296817895635696e-01  9.5453761360700140e-01  9.7184230164920482e-01  9.7128004515427391e-01  9.6629020245917074e-01  9.0381017834995553e-02  8.7187858488821726e-02  7.6044151011598976e-02  5.7640636665849211e-02  3.6807568842946246e-02  1.9009111543999875e-02  7.4507882478799499e-03  3.0085777332063252e-03  5.5355776962530603e-03  1.4324743002034032e-02  2.7630889285863536e-02  4.2492514969182188e-02  5.5434188272255137e-02  6.3500175517779367e-02  6.5195370994028071e-02  6.0928593372223838e-02  5.2493405780386374e-02  4.2043690987286997e-02  3.1416379560726286e-02  2.1943124319260127e-02  1.4426382978417472e-02  9.1265343591742133e-03  5.8364627138718025e-03  4.0946070583683259e-03  3.4490066754825784e-03  3.6484499835083718e-03  4.6999231618197407e-03  6.7979251963581613e-03  1.0170626086495939e-02  1.4903966922343944e-02  2.0794723169712717e-02  2.7248827110370060e-02  3.3223686541782968e-02  3.7285822448779850e-02  3.7970761018137532e-02  3.4505532518425960e-02  2.7459547015479736e-02  1.8679862551043543e-02  1.0493205660958920e-02  4.6643257530369336e-03  1.5825538347556743e-03  4.7811111035943007e-04  5.9008318863366601e-04  1.6661192087997997e-03  3.5073490877535361e-03  5.6057714468594391e-03  7.2562830343086615e-03  7.8621076270668569e-03  7.2107876193049248e-03  5.5751186624653894e-03  3.5499712254194416e-03  1.7645999788758922e-03  6.7424542758996416e-04  4.7990752902957564e-04  1.1268588702410024e-03  2.3442567357478661e-03  3.7137805910675953e-03  4.7647902357869330e-03  5.1070403863245654e-03  4.6003559957175037e-03  3.4609910616614373e-03  2.1314162275109191e-03  1.0242236078295201e-03  4.8868371533383628e-04  8.2821871787817404e-04  2.2055406358841359e-03  4.7663469468094948e-03  8.8683654590146297e-03  1.4985016173601817e-02  2.3287697363236860e-02  3.3145521590484568e-02  4.2800831476312702e-02  4.9759029639137024e-02  5.2091112747240875e-02  4.9569480839360400e-02  4.3478740281971004e-02  3.5568021095258535e-02  2.7287896295230461e-02  1.9616465803865581e-02  1.3152621519101708e-02  8.2049532698946909e-03  4.8184968240866802e-03  2.7968227013687860e-03  1.7810448340085643e-03  1.3977253405069105e-03  1.4467200555546950e-03  2.0782388748195931e-03  3.9034562995693099e-03  8.0341348817191613e-03  1.6182660402889563e-02  3.1144883391100241e-02  5.8274419862395899e-02  1.0973533445929899e-01  2.1608213359323619e-01  4.1951276450011316e-01  6.4976688008936323e-01  7.9330491308624662e-01  8.6557389150067965e-01  8.9943188548372133e-01  9.0938289651301807e-01  9.0890002957203264e-01  5.9492935184092856e-02  5.8571977896431322e-02  5.3520795912601227e-02  4.3322615509687842e-02  3.0333538496195828e-02  1.7851080651134044e-02  8.3901937495087474e-03  3.2359247890742823e-03  2.7898555997656433e-03  6.8914774649807900e-03  1.4751074829565577e-02  2.4760042537387731e-02  3.4660825226636473e-02  4.2208026739273180e-02  4.5951635676258609e-02  4.5640138623728566e-02  4.2027637939787595e-02  3.6338867218216116e-02  2.9807705331493867e-02  2.3446535949056723e-02  1.7961378025554239e-02  1.3725912586970144e-02  1.0813235318508937e-02  9.0987817741307007e-03  8.3991321637608488e-03  8.5830011786758153e-03  9.6108107977555639e-03  1.1497778697673960e-02  1.4226100362923186e-02  1.7646463833969585e-02  2.1405826061086271e-02  2.4923706426510577e-02  2.7435637494338968e-02  2.8141358986530755e-02  2.6485486429707338e-02  2.2483686954640699e-02  1.6865319089034207e-02  1.0869485547777414e-02  5.7811760083711153e-03  2.4146738092683867e-03  8.2720482275637399e-04  5.6958922695363125e-04  1.2063343667277080e-03  2.4590804956981368e-03  4.0045160654970432e-03  5.3803020011746663e-03  6.1152790539217234e-03  5.9366650138597977e-03  4.9080177569733336e-03  3.3993891608455852e-03  1.9028501172125214e-03  8.3051867587227886e-04  4.0288938749053448e-04  6.2862642840881132e-04  1.3376592104828117e-03  2.2444033917204355e-03  3.0291014976411108e-03  3.4252018720424596e-03  3.2995615552770955e-03  2.7032527164858097e-03  1.8575308058948758e-03  1.0674036068049843e-03  6.2652418597596558e-04  7.6880453263810072e-04  1.6439354240780585e-03  3.3209723178864339e-03  5.8422439770429557e-03  9.2594632294409913e-03  1.3582743914618995e-02  1.8661793269120396e-02  2.4053357780036033e-02  2.8972754839535649e-02  3.2474604725699914e-02  3.3855678203937277e-02  3.2985983142438557e-02  3.0286941944715720e-02  2.6439972284252478e-02  2.2109227014335420e-02  1.7817704939968673e-02  1.3934820624718536e-02  1.0694625518686239e-02  8.2071259203134808e-03  6.4696337405386302e-03  5.3998270562369641e-03  4.9009802997301800e-03  4.9517597787097738e-03  5.7006838570437673e-03  7.5432882608549119e-03  1.1176932309961618e-02  1.7672162350408450e-02  2.8660842725405040e-02  4.6791276111239621e-02  7.6731781068753627e-02  1.2762559036743809e-01  2.1740586224846445e-01  3.6187866483640019e-01  5.2814348075430306e-01  6.5791300961822152e-01  7.3688547987296327e-01  7.7640721769036880e-01  7.8766740140323976e-01  3.2763653379386568e-02  3.3312374679912368e-02  3.2655429367533705e-02  2.8966649911838539e-02  2.2830877230591885e-02  1.5752442356382252e-02  9.2674687071348169e-03  4.5513712037490517e-03  2.3113277642976284e-03  2.8199187286191228e-03  5.9357471482766678e-03  1.1071026512744005e-02  1.7208603663407866e-02  2.3107639054411155e-02  2.7676904859715086e-02  3.0300952391725717e-02  3.0925679483022783e-02  2.9914524881885337e-02  2.7827346224337184e-02  2.5242689994548029e-02  2.2650779464123215e-02  2.0400658650505155e-02  1.8689332969758797e-02  1.7587175824202838e-02  1.7084789797663084e-02  1.7136557741364664e-02  1.7679913479667967e-02  1.8624933915053529e-02  1.9825646037457800e-02  2.1053863401098979e-02  2.1995731099607622e-02  2.2284400411088038e-02  2.1575140857744403e-02  1.9658231173627465e-02  1.6578040290977838e-02  1.2692345591209396e-02  8.6105679368790496e-03  5.0157591550263206e-03  2.4415160262184362e-03  1.0978971952476737e-03  8.4988314305720558e-04  1.3729432287574298e-03  2.3280583878782474e-03  3.4058333562658979e-03  4.3015469385177130e-03  4.7412892123488452e-03  4.5674899081587150e-03  3.8162575100201086e-03  2.7187421140531156e-03  1.6077723492476839e-03  7.8264051659421231e-04  4.0962884958698192e-04  4.9217140614920337e-04  8.9793700129980046e-04  1.4187797195481843e-03  1.8431028390486211e-03  2.0213248944081228e-03  1.9075005398787326e-03  1.5673887106282495e-03  1.1524224829318997e-03  8.4920545833475937e-04  8.2467230335811948e-04  1.1882106262978817e-03  1.9790052698736033e-03  3.1753085425782444e-03  4.7186571181875017e-03  6.5397130787908037e-03  8.5705825739075120e-03  1.0738588230402463e-02  1.2946566875835024e-02  1.5052184402134593e-02  1.6867768974884800e-02  1.8199628403022156e-02  1.8916886232933909e-02  1.9005465669977576e-02  1.8567887246743391e-02  1.7774676622134493e-02  1.6805760349671874e-02  1.5811382289795995e-02  1.4896377442055816e-02  1.4118438059422591e-02  1.3493859428948849e-02  1.3011964280887776e-02  1.2661093913422931e-02  1.2462662045109122e-02  1.2503970475452673e-02  1.2963843742710059e-02  1.4133747516775199e-02  1.6441726867911548e-02  2.0489045205814405e-02  2.7117153053822372e-02  3.7526647245036467e-02  5.3454034936827134e-02  7.7444378253579388e-02  1.1334820677361951e-01  1.6680860304733855e-01  2.4230709174237189e-01  3.3419837987086343e-01  4.2754287605128510e-01  5.0264211359630917e-01  5.3315405455791276e-01  1.4394223855746390e-02  1.5411240759337636e-02  1.6817154280419005e-02  1.7007318095370039e-02  1.5702439520044902e-02  1.3198054974187733e-02  1.0040802500554901e-02  6.8725717839389477e-03  4.2978232191212464e-03  2.7886735116359265e-03  2.6284227787111017e-03  3.8810118933605992e-03  6.3820400377138115e-03  9.7689177546088600e-03  1.3567815123258565e-02  1.7316266534856656e-02  2.0666494265103315e-02  2.3430151672640755e-02  2.5568193862395974e-02  2.7150405771257057e-02  2.8301157861089096e-02  2.9141217460432370e-02  2.9741554270608591e-02  3.0107094221508805e-02  3.0194771189010396e-02  2.9949377782222512e-02  2.9330010027145803e-02  2.8310978432795914e-02  2.6865688143085358e-02  2.4956534259377820e-02  2.2546872987916789e-02  1.9634231954360253e-02  1.6291435659727502e-02  1.2696481706121142e-02  9.1312877444956267e-03  5.9378136394063448e-03  3.4393273018940755e-03  1.8532233755231709e-03  1.2266413489769111e-03  1.4205184169255815e-03  2.1537189264271691e-03  3.0875464097003874e-03  3.9068045326411879e-03  4.3729210075801710e-03  4.3569472009553026e-03  3.8600314120399021e-03  3.0116900526811013e-03  2.0330825125553526e-03  1.1677008424794376e-03  6.0284904365107432e-04  4.1374121693517612e-04  5.4998534333990719e-04  8.6496685140622265e-04  1.1759399816313957e-03  1.3344925985011588e-03  1.2815465780191219e-03  1.0657783096230165e-03  8.2097693922623992e-04  7.1501405439296911e-04  8.9091194777635781e-04  1.4194146512544893e-03  2.2767044678742017e-03  3.3530077307471597e-03  4.4888043989081043e-03  5.5258935589951206e-03  6.3539191530655988e-03  6.9348379918253806e-03  7.2988839993381651e-03  7.5185918661442828e-03  7.6751407422300305e-03  7.8319330903821368e-03  8.0254586969885407e-03  8.2751190761576211e-03  8.6045292753285183e-03  9.0609710267896774e-03  9.7208491401882795e-03  1.0677036879571958e-02  1.2013306630564036e-02  1.3774318998217641e-02  1.5935222552295996e-02  1.8371787093105919e-02  2.0843644709262702e-02  2.3024127300089858e-02  2.4600426320396756e-02  2.5403889556289142e-02  2.5481132626247734e-02  2.5067954937271264e-02  2.4520684639299389e-02  2.4269686156131880e-02  2.4803296698929649e-02  2.6666382455316346e-02  3.0475835216120788e-02  3.6957977103655004e-02  4.6986633744320057e-02  6.1599665999966795e-02  8.1997516227598183e-02  1.0952990505008559e-01  1.4569761029503120e-01  1.9131715055889995e-01  2.4014567534967945e-01  2.6476808146712250e-01  4.7155485908358542e-03  5.4145835646987554e-03  6.9042677910705038e-03  8.4981972139296300e-03  9.8246219584107626e-03  1.0603972869824497e-02  1.0643692372471038e-02  9.8964282490375949e-03  8.4881316246649494e-03  6.6979474209710290e-03  4.9034896035463661e-03  3.5181437847572800e-03  2.9291478447502988e-03  3.4355774073996800e-03  5.2022728115586388e-03  8.2460660670042474e-03  1.2442197654735624e-02  1.7532942309977595e-02  2.3154649012669712e-02  2.8909921985178617e-02  3.4446927246524685e-02  3.9460372509353060e-02  4.3612536395146104e-02  4.6485615940960921e-02  4.7661762212078712e-02  4.6899960781918722e-02  4.4264540023948543e-02  4.0092892291584484e-02  3.4850132132578537e-02  2.9003699395378297e-02  2.2979883516480535e-02  1.7169362914900281e-02  1.1930530546134258e-02  7.5705880614844578e-03  4.3127144712226890e-03  2.2650807660470266e-03  1.4014151055104210e-03  1.5564008961656804e-03  2.4387238105396183e-03  3.6674332734337495e-03  4.8356186995697865e-03  5.5937406116914491e-03  5.7293022230616884e-03  5.2135272794810849e-03  4.1956220636767960e-03  2.9451677620759404e-03  1.7627923908860594e-03  8.9016716972715169e-04  4.4871610780125674e-04  4.2310300851152284e-04  6.8578773978959578e-04  1.0448839526667985e-03  1.3026691805990587e-03  1.3236475838092983e-03  1.0965579219797818e-03  7.5212437327318272e-04  5.1783704455712215e-04  6.3409266627037378e-04  1.2691816322134557e-03  2.4557653678377481e-03  4.0610630833565701e-03  5.8038567071701649e-03  7.3264539442394246e-03  8.3062125216751548e-03  8.5623153393808629e-03  8.1086940108843573e-03  7.1324277643351509e-03  5.9150544786146448e-03  4.7354331816651159e-03  3.7918173092776580e-03  3.1670425460507594e-03  2.8436649140861918e-03  2.7599894312705965e-03  2.8843864582070089e-03  3.2766653574728458e-03  4.1083201327127023e-03  5.6330797660338857e-03  8.1263247474676475e-03  1.1820474658264940e-02  1.6833596142794369e-02  2.3050437093092051e-02  2.9957152551458567e-02  3.6582712108899844e-02  4.1755276196299991e-02  4.4597755116655646e-02  4.4859987378394743e-02  4.2864154151278401e-02  3.9272477626607967e-02  3.4916574479490960e-02  3.0674352119270526e-02  2.7329179719081002e-02  2.5469723865831781e-02  2.5505155724949324e-02  2.7772770332037178e-02  3.2662136286575119e-02  4.0708398460025809e-02  5.2658467610815336e-02  6.9555358036776496e-02  9.2659113139331256e-02  1.1992928925700748e-01  1.3489682436570766e-01  2.4674006790862194e-03  2.3105275572685600e-03  2.4646832884537011e-03  3.5448481216564082e-03  5.5871859047530821e-03  8.2594436812788198e-03  1.0987847316081089e-02  1.3110849382349519e-02  1.4090735937833353e-02  1.3671411091171972e-02  1.1912825275922133e-02  9.1762025155515490e-03  6.1182879065446736e-03  3.6036862900217892e-03  2.4896216299843915e-03  3.4296415229275829e-03  6.8019778102507119e-03  1.2671717743084504e-02  2.0718197424272142e-02  3.0260341471063178e-02  4.0466862077395055e-02  5.04997569094