<?xml version="1.0"?>
<VTKFile type="UnstructuredGrid"  version="0.1"  >
<UnstructuredGrid>
<Piece  NumberOfPoints="20201" NumberOfCells="40000">
<Points>
<DataArray  type="Float64"  NumberOfComponents="3"  format="ascii">0 0 0  2 0 0  4 0 0  6 0 0  8 0 0  10 0 0  12 0 0  14 0 0  16 0 0  18 0 0  20 0 0  22 0 0  24 0 0  26 0 0  28 0 0  30 0 0  32 0 0  34 0 0  36 0 0  38 0 0  40 0 0  42 0 0  44 0 0  46 0 0  48 0 0  50 0 0  52 0 0  54 0 0  56 0 0  58 0 0  60 0 0  62 0 0  64 0 0  66 0 0  68 0 0  70 0 0  72 0 0  74 0 0  76 0 0  78 0 0  80 0 0  82 0 0  84 0 0  86 0 0  88 0 0  90 0 0  92 0 0  94 0 0  96 0 0  98 0 0  100 0 0  102 0 0  104 0 0  106 0 0  108 0 0  110 0 0  112 0 0  114 0 0  116 0 0  118 0 0  120 0 0  122 0 0  124 0 0  126 0 0  128 0 0  130 0 0  132 0 0  134 0 0  136 0 0  138 0 0  140 0 0  142 0 0  144 0 0  146 0 0  148 0 0  150 0 0  152 0 0  154 0 0  156 0 0  158 0 0  160 0 0  162 0 0  164 0 0  166 0 0  168 0 0  170 0 0  172 0 0  174 0 0  176 0 0  178 0 0  180 0 0  182 0 0  184 0 0  186 0 0  188 0 0  190 0 0  192 0 0  194 0 0  196 0 0  198 0 0  200 0 0  0 2 0  2 2 0  4 2 0  6 2 0  8 2 0  10 2 0  12 2 0  14 2 0  16 2 0  18 2 0  20 2 0  22 2 0  24 2 0  26 2 0  28 2 0  30 2 0  32 2 0  34 2 0  36 2 0  38 2 0  40 2 0  42 2 0  44 2 0  46 2 0  48 2 0  50 2 0  52 2 0  54 2 0  56 2 0  58 2 0  60 2 0  62 2 0  64 2 0  66 2 0  68 2 0  70 2 0  72 2 0  74 2 0  76 2 0  78 2 0  80 2 0  82 2 0  84 2 0  86 2 0  88 2 0  90 2 0  92 2 0  94 2 0  96 2 0  98 2 0  100 2 0  102 2 0  104 2 0  106 2 0  108 2 0  110 2 0  112 2 0  114 2 0  116 2 0  118 2 0  120 2 0  122 2 0  124 2 0  126 2 0  128 2 0  130 2 0  132 2 0  134 2 0  136 2 0  138 2 0  140 2 0  142 2 0  144 2 0  146 2 0  148 2 0  150 2 0  152 2 0  154 2 0  156 2 0  158 2 0  160 2 0  162 2 0  164 2 0  166 2 0  168 2 0  170 2 0  172 2 0  174 2 0  176 2 0  178 2 0  180 2 0  182 2 0  184 2 0  186 2 0  188 2 0  190 2 0  192 2 0  194 2 0  196 2 0  198 2 0  200 2 0  0 4 0  2 4 0  4 4 0  6 4 0  8 4 0  10 4 0  12 4 0  14 4 0  16 4 0  18 4 0  20 4 0  22 4 0  24 4 0  26 4 0  28 4 0  30 4 0  32 4 0  34 4 0  36 4 0  38 4 0  40 4 0  42 4 0  44 4 0  46 4 0  48 4 0  50 4 0  52 4 0  54 4 0  56 4 0  58 4 0  60 4 0  62 4 0  64 4 0  66 4 0  68 4 0  70 4 0  72 4 0  74 4 0  76 4 0  78 4 0  80 4 0  82 4 0  84 4 0  86 4 0  88 4 0  90 4 0  92 4 0  94 4 0  96 4 0  98 4 0  100 4 0  102 4 0  104 4 0  106 4 0  108 4 0  110 4 0  112 4 0  114 4 0  116 4 0  118 4 0  120 4 0  122 4 0  124 4 0  126 4 0  128 4 0  130 4 0  132 4 0  134 4 0  136 4 0  138 4 0  140 4 0  142 4 0  144 4 0  146 4 0  148 4 0  150 4 0  152 4 0  154 4 0  156 4 0  158 4 0  160 4 0  162 4 0  164 4 0  166 4 0  168 4 0  170 4 0  172 4 0  174 4 0  176 4 0  178 4 0  180 4 0  182 4 0  184 4 0  186 4 0  188 4 0  190 4 0  192 4 0  194 4 0  196 4 0  198 4 0  200 4 0  0 6 0  2 6 0  4 6 0  6 6 0  8 6 0  10 6 0  12 6 0  14 6 0  16 6 0  18 6 0  20 6 0  22 6 0  24 6 0  26 6 0  28 6 0  30 6 0  32 6 0  34 6 0  36 6 0  38 6 0  40 6 0  42 6 0  44 6 0  46 6 0  48 6 0  50 6 0  52 6 0  54 6 0  56 6 0  58 6 0  60 6 0  62 6 0  64 6 0  66 6 0  68 6 0  70 6 0  72 6 0  74 6 0  76 6 0  78 6 0  80 6 0  82 6 0  84 6 0  86 6 0  88 6 0  90 6 0  92 6 0  94 6 0  96 6 0  98 6 0  100 6 0  102 6 0  104 6 0  106 6 0  108 6 0  110 6 0  112 6 0  114 6 0  116 6 0  118 6 0  120 6 0  122 6 0  124 6 0  126 6 0  128 6 0  130 6 0  132 6 0  134 6 0  136 6 0  138 6 0  140 6 0  142 6 0  144 6 0  146 6 0  148 6 0  150 6 0  152 6 0  154 6 0  156 6 0  158 6 0  160 6 0  162 6 0  164 6 0  166 6 0  168 6 0  170 6 0  172 6 0  174 6 0  176 6 0  178 6 0  180 6 0  182 6 0  184 6 0  186 6 0  188 6 0  190 6 0  192 6 0  194 6 0  196 6 0  198 6 0  200 6 0  0 8 0  2 8 0  4 8 0  6 8 0  8 8 0  10 8 0  12 8 0  14 8 0  16 8 0  18 8 0  20 8 0  22 8 0  24 8 0  26 8 0  28 8 0  30 8 0  32 8 0  34 8 0  36 8 0  38 8 0  40 8 0  42 8 0  44 8 0  46 8 0  48 8 0  50 8 0  52 8 0  54 8 0  56 8 0  58 8 0  60 8 0  62 8 0  64 8 0  66 8 0  68 8 0  70 8 0  72 8 0  74 8 0  76 8 0  78 8 0  80 8 0  82 8 0  84 8 0  86 8 0  88 8 0  90 8 0  92 8 0  94 8 0  96 8 0  98 8 0  100 8 0  102 8 0  104 8 0  106 8 0  108 8 0  110 8 0  112 8 0  114 8 0  116 8 0  118 8 0  120 8 0  122 8 0  124 8 0  126 8 0  128 8 0  130 8 0  132 8 0  134 8 0  136 8 0  138 8 0  140 8 0  142 8 0  144 8 0  146 8 0  148 8 0  150 8 0  152 8 0  154 8 0  156 8 0  158 8 0  160 8 0  162 8 0  164 8 0  166 8 0  168 8 0  170 8 0  172 8 0  174 8 0  176 8 0  178 8 0  180 8 0  182 8 0  184 8 0  186 8 0  188 8 0  190 8 0  192 8 0  194 8 0  196 8 0  198 8 0  200 8 0  0 10 0  2 10 0  4 10 0  6 10 0  8 10 0  10 10 0  12 10 0  14 10 0  16 10 0  18 10 0  20 10 0  22 10 0  24 10 0  26 10 0  28 10 0  30 10 0  32 10 0  34 10 0  36 10 0  38 10 0  40 10 0  42 10 0  44 10 0  46 10 0  48 10 0  50 10 0  52 10 0  54 10 0  56 10 0  58 10 0  60 10 0  62 10 0  64 10 0  66 10 0  68 10 0  70 10 0  72 10 0  74 10 0  76 10 0  78 10 0  80 10 0  82 10 0  84 10 0  86 10 0  88 10 0  90 10 0  92 10 0  94 10 0  96 10 0  98 10 0  100 10 0  102 10 0  104 10 0  106 10 0  108 10 0  110 10 0  112 10 0  114 10 0  116 10 0  118 10 0  120 10 0  122 10 0  124 10 0  126 10 0  128 10 0  130 10 0  132 10 0  134 10 0  136 10 0  138 10 0  140 10 0  142 10 0  144 10 0  146 10 0  148 10 0  150 10 0  152 10 0  154 10 0  156 10 0  158 10 0  160 10 0  162 10 0  164 10 0  166 10 0  168 10 0  170 10 0  172 10 0  174 10 0  176 10 0  178 10 0  180 10 0  182 10 0  184 10 0  186 10 0  188 10 0  190 10 0  192 10 0  194 10 0  196 10 0  198 10 0  200 10 0  0 12 0  2 12 0  4 12 0  6 12 0  8 12 0  10 12 0  12 12 0  14 12 0  16 12 0  18 12 0  20 12 0  22 12 0  24 12 0  26 12 0  28 12 0  30 12 0  32 12 0  34 12 0  36 12 0  38 12 0  40 12 0  42 12 0  44 12 0  46 12 0  48 12 0  50 12 0  52 12 0  54 12 0  56 12 0  58 12 0  60 12 0  62 12 0  64 12 0  66 12 0  68 12 0  70 12 0  72 12 0  74 12 0  76 12 0  78 12 0  80 12 0  82 12 0  84 12 0  86 12 0  88 12 0  90 12 0  92 12 0  94 12 0  96 12 0  98 12 0  100 12 0  102 12 0  104 12 0  106 12 0  108 12 0  110 12 0  112 12 0  114 12 0  116 12 0  118 12 0  120 12 0  122 12 0  124 12 0  126 12 0  128 12 0  130 12 0  132 12 0  134 12 0  136 12 0  138 12 0  140 12 0  142 12 0  144 12 0  146 12 0  148 12 0  150 12 0  152 12 0  154 12 0  156 12 0  158 12 0  160 12 0  162 12 0  164 12 0  166 12 0  168 12 0  170 12 0  172 12 0  174 12 0  176 12 0  178 12 0  180 12 0  182 12 0  184 12 0  186 12 0  188 12 0  190 12 0  192 12 0  194 12 0  196 12 0  198 12 0  200 12 0  0 14 0  2 14 0  4 14 0  6 14 0  8 14 0  10 14 0  12 14 0  14 14 0  16 14 0  18 14 0  20 14 0  22 14 0  24 14 0  26 14 0  28 14 0  30 14 0  32 14 0  34 14 0  36 14 0  38 14 0  40 14 0  42 14 0  44 14 0  46 14 0  48 14 0  50 14 0  52 14 0  54 14 0  56 14 0  58 14 0  60 14 0  62 14 0  64 14 0  66 14 0  68 14 0  70 14 0  72 14 0  74 14 0  76 14 0  78 14 0  80 14 0  82 14 0  84 14 0  86 14 0  88 14 0  90 14 0  92 14 0  94 14 0  96 14 0  98 14 0  100 14 0  102 14 0  104 14 0  106 14 0  108 14 0  110 14 0  112 14 0  114 14 0  116 14 0  118 14 0  120 14 0  122 14 0  124 14 0  126 14 0  128 14 0  130 14 0  132 14 0  134 14 0  136 14 0  138 14 0  140 14 0  142 14 0  144 14 0  146 14 0  148 14 0  150 14 0  152 14 0  154 14 0  156 14 0  158 14 0  160 14 0  162 14 0  164 14 0  166 14 0  168 14 0  170 14 0  172 14 0  174 14 0  176 14 0  178 14 0  180 14 0  182 14 0  184 14 0  186 14 0  188 14 0  190 14 0  192 14 0  194 14 0  196 14 0  198 14 0  200 14 0  0 16 0  2 16 0  4 16 0  6 16 0  8 16 0  10 16 0  12 16 0  14 16 0  16 16 0  18 16 0  20 16 0  22 16 0  24 16 0  26 16 0  28 16 0  30 16 0  32 16 0  34 16 0  36 16 0  38 16 0  40 16 0  42 16 0  44 16 0  46 16 0  48 16 0  50 16 0  52 16 0  54 16 0  56 16 0  58 16 0  60 16 0  62 16 0  64 16 0  66 16 0  68 16 0  70 16 0  72 16 0  74 16 0  76 16 0  78 16 0  80 16 0  82 16 0  84 16 0  86 16 0  88 16 0  90 16 0  92 16 0  94 16 0  96 16 0  98 16 0  100 16 0  102 16 0  104 16 0  106 16 0  108 16 0  110 16 0  112 16 0  114 16 0  116 16 0  118 16 0  120 16 0  122 16 0  124 16 0  126 16 0  128 16 0  130 16 0  132 16 0  134 16 0  136 16 0  138 16 0  140 16 0  142 16 0  144 16 0  146 16 0  148 16 0  150 16 0  152 16 0  154 16 0  156 16 0  158 16 0  160 16 0  162 16 0  164 16 0  166 16 0  168 16 0  170 16 0  172 16 0  174 16 0  176 16 0  178 16 0  180 16 0  182 16 0  184 16 0  186 16 0  188 16 0  190 16 0  192 16 0  194 16 0  196 16 0  198 16 0  200 16 0  0 18 0  2 18 0  4 18 0  6 18 0  8 18 0  10 18 0  12 18 0  14 18 0  16 18 0  18 18 0  20 18 0  22 18 0  24 18 0  26 18 0  28 18 0  30 18 0  32 18 0  34 18 0  36 18 0  38 18 0  40 18 0  42 18 0  44 18 0  46 18 0  48 18 0  50 18 0  52 18 0  54 18 0  56 18 0  58 18 0  60 18 0  62 18 0  64 18 0  66 18 0  68 18 0  70 18 0  72 18 0  74 18 0  76 18 0  78 18 0  80 18 0  82 18 0  84 18 0  86 18 0  88 18 0  90 18 0  92 18 0  94 18 0  96 18 0  98 18 0  100 18 0  102 18 0  104 18 0  106 18 0  108 18 0  110 18 0  112 18 0  114 18 0  116 18 0  118 18 0  120 18 0  122 18 0  124 18 0  126 18 0  128 18 0  130 18 0  132 18 0  134 18 0  136 18 0  138 18 0  140 18 0  142 18 0  144 18 0  146 18 0  148 18 0  150 18 0  152 18 0  154 18 0  156 18 0  158 18 0  160 18 0  162 18 0  164 18 0  166 18 0  168 18 0  170 18 0  172 18 0  174 18 0  176 18 0  178 18 0  180 18 0  182 18 0  184 18 0  186 18 0  188 18 0  190 18 0  192 18 0  194 18 0  196 18 0  198 18 0  200 18 0  0 20 0  2 20 0  4 20 0  6 20 0  8 20 0  10 20 0  12 20 0  14 20 0  16 20 0  18 20 0  20 20 0  22 20 0  24 20 0  26 20 0  28 20 0  30 20 0  32 20 0  34 20 0  36 20 0  38 20 0  40 20 0  42 20 0  44 20 0  46 20 0  48 20 0  50 20 0  52 20 0  54 20 0  56 20 0  58 20 0  60 20 0  62 20 0  64 20 0  66 20 0  68 20 0  70 20 0  72 20 0  74 20 0  76 20 0  78 20 0  80 20 0  82 20 0  84 20 0  86 20 0  88 20 0  90 20 0  92 20 0  94 20 0  96 20 0  98 20 0  100 20 0  102 20 0  104 20 0  106 20 0  108 20 0  110 20 0  112 20 0  114 20 0  116 20 0  118 20 0  120 20 0  122 20 0  124 20 0  126 20 0  128 20 0  130 20 0  132 20 0  134 20 0  136 20 0  138 20 0  140 20 0  142 20 0  144 20 0  146 20 0  148 20 0  150 20 0  152 20 0  154 20 0  156 20 0
[...]
<PointData  Scalars="f_271-3"> 
<DataArray  type="Float64"  Name="f_271-3"  format="ascii">1.7599585659785363e-10  1.7007417470850357e-10  1.5365480241310529e-10  1.3036228765982976e-10  1.0503980070017166e-10  8.2467248996459391e-11  6.6296125729253814e-11  5.8451926350018157e-11  5.9021492261158279e-11  6.6501339525611015e-11  7.8264824196779924e-11  9.1147792912426430e-11  1.0207706445760594e-10  1.0864882871167061e-10  1.0953875797998729e-10  1.0464233765533761e-10  9.4918946315289318e-11  8.2012495668169404e-11  6.7788711925864880e-11  5.3931377962685671e-11  4.1688147518824072e-11  3.1788352700138213e-11  2.4502468786948989e-11  1.9786249503693610e-11  1.7447371835116250e-11  1.7281040178669148e-11  1.9138254927876615e-11  2.2912788920279544e-11  2.8456759947555206e-11  3.5456801309831227e-11  4.3320506845567300e-11  5.1131777981780314e-11  5.7725742170731082e-11  6.1900009471745497e-11  6.2720294217352827e-11  5.9817162180523144e-11  5.3545905635791795e-11  4.4922759680778622e-11  3.5347619383186567e-11  2.6223105959370220e-11  1.8621117644601202e-11  1.3107626964319843e-11  9.7465408696720015e-12  8.2248415298701317e-12  8.0164676171726200e-12  8.5281229303420841e-12  9.2103451593312196e-12  9.6390229818658018e-12  9.5702384834850541e-12  8.9602970922200376e-12  7.9388100536035867e-12  6.7260302316403910e-12  5.4768890057139503e-12  3.9969439568579097e-12  1.7922201412835525e-12  2.3572149993452918e-13  1.2854766110564645e-14  1.1314063406594931e-15  9.9121241168904132e-17  1.1766743878687569e-17  8.2337102670780185e-18  3.0371091164133180e-16  1.8722964808895431e-15  7.4332570919902325e-16  5.0601268554356060e-17  7.2201162924130805e-19  3.6697363058773500e-19  1.8301680445782138e-18  2.9071762822615755e-17  5.0811633639390699e-16  1.2704201297324349e-14  2.3207712470225892e-13  5.5101204052905137e-12  3.6862231746986969e-11  6.9127755343648619e-11  7.6935364603194004e-11  7.1592524815895728e-11  6.3152878092562173e-11  6.6800386918321474e-11  1.6086776895907336e-10  8.6470470698881557e-10  5.7106786959383314e-09  3.8868065617374183e-08  2.6654748876684996e-07  1.8384630488450001e-06  1.2763256393465578e-05  8.9306175088813797e-05  6.3094989192527084e-04  4.5078832370762552e-03  3.2529780002659325e-02  2.1583326152406457e-01  7.1008081383479749e-01  9.4136158751054444e-01  9.8735303053509527e-01  9.9701187510804368e-01  9.9922360200605209e-01  9.9976817720445488e-01  9.9991547103191047e-01  9.9996009435413058e-01  9.9997471719776598e-01  9.9997828718379833e-01  1.7077111073246533e-10  1.6506177941265399e-10  1.4922487269471200e-10  1.2674046258439296e-10  1.0226566566494684e-10  8.0407912010055279e-11  6.4700773966186124e-11  5.7023704393803157e-11  5.7485755928624620e-11  6.4657777943816610e-11  7.6018383320404614e-11  8.8517326759880335e-11  9.9182684036661419e-11  1.0568137127217450e-10  1.0671826160131367e-10  1.0217529415808262e-10  9.2964226572902596e-11  8.0662463306152692e-11  6.7066662274332182e-11  5.3801654737309587e-11  4.2072933008604588e-11  3.2585355532407410e-11  2.5599520144787143e-11  2.1070979563568447e-11  1.8811947154782334e-11  1.8623166540457312e-11  2.0360335103369896e-11  2.3921398509530810e-11  2.9164530179656963e-11  3.5788279192686820e-11  4.3222374901477931e-11  5.0585846168961382e-11  5.6760769394994289e-11  6.0596803577868801e-11  6.1205162600994187e-11  5.8242382828258651e-11  5.2061363393977509e-11  4.3647401698206849e-11  3.4350061995960896e-11  2.5516869676928875e-11  1.8173760666913719e-11  1.2858060878589729e-11  9.6234784574228050e-12  8.1614435178346930e-12  7.9595928637481441e-12  8.4428715944572264e-12  9.0810721317007803e-12  9.4674789871340612e-12  9.3711498456006743e-12  8.7550736212906485e-12  7.7490029926219984e-12  6.5696193940452678e-12  5.3748347198957075e-12  4.0086211689380980e-12  1.9650358811010939e-12  3.1102362544870635e-13  1.9949042386176066e-14  1.8290790836253940e-15  1.9660998196876091e-16  2.1347146453322726e-17  7.6204087795957145e-17  2.0344329092317032e-15  1.1914456767600675e-14  4.2845518860070774e-15  2.1890008519449050e-16  8.0253363165611138e-18  4.9274935625914429e-19  5.0518343642231196e-18  5.7257946169457393e-17  9.0394844671981076e-16  1.7839887594795564e-14  3.2768185567330404e-13  6.7036135261981408e-12  3.8864434101007609e-11  6.8537695370411993e-11  7.5247075339029147e-11  6.9958123053278644e-11  6.1864682331940609e-11  6.5423062700730484e-11  1.5558251826887567e-10  8.2775702277935271e-10  5.4387388655238593e-09  3.6853669852735468e-08  2.5146960100099632e-07  1.7239931560242837e-06  1.1878587924506810e-05  8.2312552989295177e-05  5.7398231086901088e-04  4.0254005306506746e-03  2.8162391163035847e-02  1.8408102453908270e-01  6.5814122191350766e-01  9.2690075386223258e-01  9.8358541907739927e-01  9.9586060863314707e-01  9.9881567181763742e-01  9.9959952958312359e-01  9.9983276440756619e-01  9.9991099316463572e-01  9.9993901105770466e-01  9.9994621749183943e-01  1.5604227135192028e-10  1.5092735722866259e-10  1.3672279462933495e-10  1.1650853369630486e-10  9.4424461438722294e-11  7.4595318292042595e-11  6.0220494132539641e-11  5.3043612204221080e-11  5.3228535149930571e-11  5.9548717311233975e-11  6.9775314340989090e-11  8.1178695584619023e-11  9.1075587448837030e-11  9.7338465138586870e-11  9.8762387160562418e-11  9.5199034761626216e-11  8.7432261315421902e-11  7.6855414249863005e-11  6.5070239682591125e-11  5.3531510661917158e-11  4.3318922777907069e-11  3.5059420237876866e-11  2.8976306329513775e-11  2.5016228329435059e-11  2.2998502869027046e-11  2.2737541434337685e-11  2.4104390790197836e-11  2.7014387059509090e-11  3.1350701432083646e-11  3.6854135200757132e-11  4.3024645522540226e-11  4.9085972388812954e-11  5.4055247589526751e-11  5.6928386251921303e-11  5.6941755180092242e-11  5.3820488990637756e-11  4.7905979191906391e-11  4.0092482032711832e-11  3.1585277484865957e-11  2.3575525365340550e-11  1.6959542911872504e-11  1.2194535672684467e-11  9.3066300641508190e-12  8.0014134828512857e-12  7.8070130578530197e-12  8.2015530338212872e-12  8.7102880199241569e-12  8.9758199783392272e-12  8.8031203282571258e-12  8.1726852510401490e-12  7.2130670031818689e-12  6.1289205520784928e-12  5.0804957880178345e-12  3.9953894488753963e-12  2.4232885237011417e-12  6.4557991444459197e-13  6.5731352244600761e-14  7.3938671927088380e-15  1.2626897837601478e-15  5.5285012933594880e-16  1.6514716987291475e-15  2.9812086280449731e-14  1.2446478926500564e-13  3.9440701061939162e-14  2.1577150186594338e-15  5.1702796018184024e-17  1.9412157301026798e-17  3.5901415021351635e-17  3.3815907586076748e-16  3.2730013135737824e-15  4.7983747409388311e-14  8.2238599614496737e-13  1.1194560852519710e-11  4.3526858972555272e-11  6.6111009790839879e-11  7.0311615284710109e-11  6.5316918237335067e-11  5.8250330774057279e-11  6.1631946949675034e-11  1.4111972178298615e-10  7.2674944721831116e-10  4.6993980968213111e-09  3.1420999861463878e-08  2.1121250885957972e-07  1.4221342962072916e-06  9.5819778274310949e-06  6.4525405068805209e-05  4.3317549663454425e-04  2.8809783400530402e-03  1.8675047842291594e-02  1.1378554407457042e-01  4.8898874791319180e-01  8.6590707959898949e-01  9.6723786873000572e-01  9.9058361755856594e-01  9.9681471172951641e-01  9.9871756938930067e-01  9.9937254556094735e-01  9.9962416825167311e-01  9.9972406063545860e-01  9.9975115643823853e-01  1.3437991869531998e-10  1.3012718442127432e-10  1.1829589026691822e-10  1.0139846984056182e-10  8.2835509707197387e-11  6.6032464466561135e-11  5.3692294092517842e-11  4.7341054998129677e-11  4.7199756116642816e-11  5.2318498115129194e-11  6.0885348601337596e-11  7.0639926748543082e-11  7.9332616257764843e-11  8.5156815200668391e-11  8.7064494015751759e-11  8.4887796077440634e-11  7.9242917066446798e-11  7.1264149158443776e-11  6.2266868637823134e-11  5.3444260788540701e-11  4.5669351646554897e-11  3.9425978733246633e-11  3.4851922787871005e-11  3.1853416216119294e-11  3.0241554589673635e-11  2.9844560996633000e-11  3.0563184127111712e-11  3.2356931813706885e-11  3.5171552823060333e-11  3.8837741898129205e-11  4.2983371237712137e-11  4.7003709583020866e-11  5.0122592189498730e-11  5.1549313317332710e-11  5.0694571256871611e-11  4.7370119335145826e-11  4.1885659592224378e-11  3.4989528100581788e-11  2.7667060813156168e-11  2.0875890826206371e-11  1.5321395879153213e-11  1.1344981615921881e-11  8.9360506878363576e-12  7.8262472034358680e-12  7.6091415749154108e-12  7.8464143410570761e-12  8.1483408057596094e-12  8.2307194466815537e-12  7.9492203016934371e-12  7.3060925119304307e-12  6.4235330973762230e-12  5.4834401878735674e-12  4.6369254089735504e-12  3.8831579028968755e-12  2.9409457621164979e-12  1.4966340075223122e-12  3.6637775319523176e-13  6.2322546647072083e-14  1.5434701707424392e-14  1.1465932516877713e-14  5.7538998054444697e-14  3.9602848181199765e-13  8.1832462026954223e-13  3.0994682048067049e-13  2.3438938392169190e-14  2.2697854540573883e-15  4.9342645010992191e-16  6.6343279257397465e-16  2.6611169550829096e-15  2.1544168794020342e-14  2.0700132591341544e-13  2.9378618463979560e-12  2.0113911317497828e-11  4.6922278492293822e-11  6.0801339169707648e-11  6.2634736786838680e-11  5.8408793610937703e-11  5.2995858070980741e-11  5.6341519288903686e-11  1.2112425702612165e-10  5.8705193667645883e-10  3.6874321504571892e-09  2.4102576109419463e-08  1.5805331626019515e-07  1.0332167399585164e-06  6.7130950099413426e-06  4.3181528540328927e-05  2.7319514473757067e-04  1.6804195678995701e-03  9.8646406635124230e-03  5.3334991998462526e-02  2.5252368590773855e-01  6.8434764371982015e-01  9.1249916996539970e-01  9.7151459191749523e-01  9.8906583476519960e-01  9.9501122382541085e-01  9.9729608975042272e-01  9.9826179955831695e-01  9.9866895685941537e-01  9.9878236777780360e-01  1.0928672096179079e-10  1.0601252066567087e-10  9.6884798563835266e-11  8.3795060234627573e-11  6.9325213408722611e-11  5.6110042744496549e-11  4.6269548298669758e-11  4.1046453748164886e-11  4.0685334658341306e-11  4.4516623815598915e-11  5.1184743748347944e-11  5.8966271459119468e-11  6.6128919481104877e-11  7.1271592507870547e-11  7.3573889898072447e-11  7.2893985900401154e-11  6.9695205601455037e-11  6.4836991305909415e-11  5.9306406084773391e-11  5.3973405783650992e-11  4.9430013928409617e-11  4.5937406903312740e-11  4.3471683406756872e-11  4.1835768054037242e-11  4.0792552224738066e-11  4.0173629743154478e-11  3.9929678097720086e-11  4.0110389063986766e-11  4.0786919441597169e-11  4.1949567750234834e-11  4.3422218779737285e-11  4.4831758056074020e-11  4.5655792468450283e-11  4.5346664542748339e-11  4.3498190157823599e-11  3.9995371944245127e-11  3.5083081972909704e-11  2.9317286921718444e-11  2.3412970648439780e-11  1.8049654605377449e-11  1.3710568954333545e-11  1.0607083481379307e-11  8.6940090992608256e-12  7.7437422014337277e-12  7.4370672118461981e-12  7.4422992559573805e-12  7.4741384338742212e-12  7.3338879941339364e-12  6.9317822408907457e-12  6.2881071690331742e-12  5.5100083024806820e-12  4.7457821379939771e-12  4.1229493429977585e-12  3.6767712915231890e-12  3.2802184683218751e-12  2.6328181658685386e-12  1.5971977935180611e-12  7.4232746813895342e-13  4.2355150390518768e-13  4.7887202380658095e-13  1.0573095515764152e-12  2.3256059170324613e-12  2.9267383566431412e-12  1.7200350002704185e-12  3.5858505650594920e-13  3.9683591677806447e-14  9.3253359749686831e-15  8.7695813404214803e-15  2.9256066042141487e-14  1.7034396051102056e-13  1.4375606202973362e-12  9.6045141586099738e-12  2.8925057587381916e-11  4.5424726792477191e-11  5.2657444797691721e-11  5.3211435806649180e-11  5.0303892151922649e-11  4.7047841299616873e-11  5.0759785166472095e-11  1.0016686308283806e-10  4.3952239875335945e-10  2.6332658563894936e-09  1.6654418867353177e-08  1.0552510770733968e-07  6.6260508926448429e-07  4.1001334616227023e-06  2.4835093123727586e-05  1.4581386419621473e-04  8.1852965125193381e-04  4.3089233934057196e-03  2.0986819714345958e-02  9.1577573314343783e-02  3.3743155916304224e-01  7.1124293987953358e-01  8.9722851138301674e-01  9.5702463655444381e-01  9.7867366751741036e-01  9.8768639177912487e-01  9.9169864962774268e-01  9.9343197891576474e-01  9.9391787043649105e-01  8.4335592115640281e-11  8.2008408942430791e-11  7.5511281541835098e-11  6.6167851632776544e-11  5.5798101097098900e-11  4.6278694672154955e-11  3.9140721180300800e-11  3.5302246563932316e-11  3.4970112906722446e-11  3.7693216556692756e-11  4.2526923360913165e-11  4.8267273792501060e-11  5.3714524596180270e-11  5.7918883868812477e-11  6.0355306130519178e-11  6.0983983838925334e-11  6.0183711530845325e-11  5.8585000529280081e-11  5.6859321644901277e-11  5.5527869027483159e-11  5.4839414082597518e-11  5.4742176690766793e-11  5.4947958600980409e-11  5.5062249003772087e-11  5.4735195932981364e-11  5.3781652584114369e-11  5.2229853334001853e-11  5.0285884937130200e-11  4.8233422260169120e-11  4.6310582348252240e-11  4.4610187804621814e-11  4.3038113682346377e-11  4.1343754571237895e-11  3.9213090498854797e-11  3.6392824418745230e-11  3.2799812793909502e-11  2.8571777929529889e-11  2.4037210896909221e-11  1.9617197139287628e-11  1.5701795791455096e-11  1.2551304391258862e-11  1.0254521875072586e-11  8.7450769986377406e-12  7.8529297199628218e-12  7.3631001783932981e-12  7.0641709461819410e-12  6.7825208856157890e-12  6.4046393286093288e-12  5.8886061322683683e-12  5.2627201199399759e-12  4.6094034060325285e-12  4.0360743337019177e-12  3.6382495125366152e-12  3.4611533435300800e-12  3.4665061623160207e-12  3.5185602334801664e-12  3.4277508441137419e-12  3.1585421846824989e-12  3.0499453795881545e-12  3.5325858782826792e-12  4.7126780831510375e-12  5.9904236849197857e-12  6.3953027173611797e-12  5.2475515558627523e-12  2.7669171884469228e-12  9.5005950199156153e-13  3.7811318036989216e-13  3.0489159391818397e-13  5.5817754876528647e-13  1.8465332178945731e-12  7.0036355256689687e-12  1.8493596322692741e-11  3.1060841584647013e-11  3.9340765202817803e-11  4.2970881527265046e-11  4.3352101863011785e-11  4.2163071292665653e-11  4.1379386693024995e-11  4.6044538710101927e-11  8.2271030044370541e-11  3.0994638106665788e-10  1.7199677196487371e-09  1.0389868250905949e-08  6.3008698468509178e-08  3.7641037923802406e-07  2.1957704758842193e-06  1.2396140169374154e-05  6.6974444868845713e-05  3.4160970646458186e-04  1.6254181439775675e-03  7.0948257405448398e-03  2.8231774764817200e-02  9.9299217334379464e-02  2.9979002368399010e-01  6.0455840776053449e-01  8.0840312080077659e-01  9.0060855456667910e-01  9.4070892071363676e-01  9.5863564530235412e-01  9.6631784899123907e-01  9.6846697046100871e-01  6.2426499566371056e-11  6.0902207627609853e-11  5.6652646413406991e-11  5.0561289957874205e-11  4.3841928532272257e-11  3.7741451339450633e-11  3.3265550349044991e-11  3.0996583376377772e-11  3.1031807454081564e-11  3.3032447853506274e-11  3.6353880146089415e-11  4.0222291073598042e-11  4.3922622588377696e-11  4.6960414934121765e-11  4.9160618382018557e-11  5.0677421421290651e-11  5.1912028954693095e-11  5.3361985513972001e-11  5.5444801495943817e-11  5.8344382297374699e-11  6.1922549800805554e-11  6.5723431590135920e-11  6.9076494833507434e-11  7.1274706934775270e-11  7.1774457296155496e-11  7.0348715889595147e-11  6.7138377095709360e-11  6.2587228100489678e-11  5.7293128370272421e-11  5.1836503709920700e-11  4.6645467621310631e-11  4.1932490097305973e-11  3.7707373436438050e-11  3.3847743524849188e-11  3.0194947557679593e-11  2.6639825009839789e-11  2.3169656473411696e-11  1.9864426785893216e-11  1.6852247674026413e-11  1.4250279626720109e-11  1.2119817140709058e-11  1.0451721044067380e-11  9.1799844452409956e-12  8.2087706081013273e-12  7.4377679599884965e-12  6.7788144932597540e-12  6.1651059998684931e-12  5.5570648205745846e-12  4.9464737396748486e-12  4.3571202055464221e-12  3.8395034517350484e-12  3.4591953768334254e-12  3.2808058744269719e-12  3.3503226939787820e-12  3.6786962504954545e-12  4.2317171624151494e-12  4.9385447351919052e-12  5.7376571475413429e-12  6.6552985778929637e-12  7.7812171220486117e-12  9.0328688444757068e-12  1.0061108890123324e-11  1.0453285659739102e-11  9.8553472489249314e-12  8.0850638225221943e-12  5.6878577310130314e-12  3.9334733152910238e-12  3.4849656454391141e-12  4.5754584146983903e-12  7.9136317997339091e-12  1.3926438865414003e-11  2.1116911398896662e-11  2.7240011469460991e-11  3.1303310516755661e-11  3.3417720614182272e-11  3.4307180601719402e-11  3.4974725601850685e-11  3.6766178349642915e-11  4.3012610834280132e-11  6.9904412370862692e-11  2.1275475310889304e-10  1.0395676868237028e-09  5.8786204441676296e-09  3.3771858881560135e-08  1.9037815917940770e-07  1.0392044589716576e-06  5.4361701808067942e-06  2.6953112650989144e-05  1.2531991368401127e-04  5.3990904966429696e-04  2.1381374553682063e-03  7.6664384116677019e-03  2.4888349553039969e-02  7.1373354191805863e-02  1.8094009098205643e-01  3.6448259489126461e-01  5.6587666549760773e-01  7.0636678458463553e-01  7.8056640374057740e-01  8.1478437209840238e-01  8.2477098744407440e-01  4.5352482229844924e-11  4.4424498473641130e-11  4.1863916196564238e-11  3.8275027288018920e-11  3.4469563103981267e-11  3.1246597588758805e-11  2.9197308562896869e-11  2.8588273640259779e-11  2.9343699195317009e-11  3.1115833019709733e-11  3.3414504870030927e-11  3.5760652624261960e-11  3.7828562046345783e-11  3.9544109306285284e-11  4.1113728125102609e-11  4.2973662251379059e-11  4.5668663104922051e-11  4.9686725381027309e-11  5.5286645087539593e-11  6.2358747299417719e-11  7.0358929881864720e-11  7.8350239044124575e-11  8.5166263003152731e-11  8.9671506159219475e-11  9.1046704703597098e-11  8.9000128056042985e-11  8.3825171300740531e-11  7.6287596190828044e-11  6.7397465259447240e-11  5.8159092174195108e-11  4.9380896681708864e-11  4.1583520009036454e-11  3.5000158419378311e-11  2.9637762011915854e-11  2.5362679723156817e-11  2.1981061055532011e-11  1.9295691644763048e-11  1.7133742228927038e-11  1.5351634087424509e-11  1.3830038775549464e-11  1.2471005265664224e-11  1.1201655534389347e-11  9.9804337219260949e-12  8.7984850044474407e-12  7.6720933955797514e-12  6.6287033902231300e-12  5.6934513880330058e-12  4.8824170157781071e-12  4.2043016704120895e-12  3.6676610445779320e-12  3.2889653416225781e-12  3.0976807785873085e-12  3.1363140493354100e-12  3.4543637135938817e-12  4.0958248872820337e-12  5.0821060879445076e-12  6.3964343457059448e-12  7.9782583359962141e-12  9.7268969863950926e-12  1.1495934046277544e-11  1.3075908630365998e-11  1.4211157295830011e-11  1.4667748562935603e-11  1.4305989225495663e-11  1.3150825440538460e-11  1.1494049521343900e-11  9.9666181849236543e-12  9.3137738185190928e-12  1.0009273839211596e-11  1.2113865026465081e-11  1.5205774614305538e-11  1.8536159892541495e-11  2.1445490704833813e-11  2.3647578368624165e-11  2.5302604070356661e-11  2.6941474037408649e-11  2.9359709307503051e-11  3.3632691209919615e-11  4.1976214930256718e-11  6.3694280536276808e-11  1.5054011635377863e-10  5.9747104881504798e-10  3.0465422900996697e-09  1.6346037375812168e-08  8.6313030865952040e-08  4.3881720949744180e-07  2.1224175051521636e-06  9.6696976522404636e-06  4.1090077356859275e-05  1.6152438977848487e-04  5.8145723038070655e-04  1.9087722402969024e-03  5.6450402845697762e-03  1.5040770180417504e-02  3.5531786775233221e-02  7.5513434663570411e-02  1.4070613345212166e-01  2.1907685461997425e-01  2.8856774590873169e-01  3.3455831370832212e-01  3.5053868161296026e-01  3.3713211878591521e-11  3.3161498300857315e-11  3.1688431759577999e-11  2.9775613001857835e-11  2.8037158141952121e-11  2.7016861770578719e-11  2.7023313437780674e-11  2.8053405840517017e-11  2.9818040864826901e-11  3.1852213116213218e-11  3.3673553985111061e-11  3.4947151189642816e-11  3.5615332611321443e-11  3.5958019540196831e-11  3.6564089113744355e-11  3.8215740306660133e-11  4.1708844582468607e-11  4.7644555882527955e-11  5.6230319726138775e-11  6.7129309492257781e-11  7.9402065035998268e-11  9.15856392039