<?xml version="1.0"?>
<VTKFile type="UnstructuredGrid"  version="0.1"  >
<UnstructuredGrid>
<Piece  NumberOfPoints="20201" NumberOfCells="40000">
<Points>
<DataArray  type="Float64"  NumberOfComponents="3"  format="ascii">0 0 0  2 0 0  4 0 0  6 0 0  8 0 0  10 0 0  12 0 0  14 0 0  16 0 0  18 0 0  20 0 0  22 0 0  24 0 0  26 0 0  28 0 0  30 0 0  32 0 0  34 0 0  36 0 0  38 0 0  40 0 0  42 0 0  44 0 0  46 0 0  48 0 0  50 0 0  52 0 0  54 0 0  56 0 0  58 0 0  60 0 0  62 0 0  64 0 0  66 0 0  68 0 0  70 0 0  72 0 0  74 0 0  76 0 0  78 0 0  80 0 0  82 0 0  84 0 0  86 0 0  88 0 0  90 0 0  92 0 0  94 0 0  96 0 0  98 0 0  100 0 0  102 0 0  104 0 0  106 0 0  108 0 0  110 0 0  112 0 0  114 0 0  116 0 0  118 0 0  120 0 0  122 0 0  124 0 0  126 0 0  128 0 0  130 0 0  132 0 0  134 0 0  136 0 0  138 0 0  140 0 0  142 0 0  144 0 0  146 0 0  148 0 0  150 0 0  152 0 0  154 0 0  156 0 0  158 0 0  160 0 0  162 0 0  164 0 0  166 0 0  168 0 0  170 0 0  172 0 0  174 0 0  176 0 0  178 0 0  180 0 0  182 0 0  184 0 0  186 0 0  188 0 0  190 0 0  192 0 0  194 0 0  196 0 0  198 0 0  200 0 0  0 2 0  2 2 0  4 2 0  6 2 0  8 2 0  10 2 0  12 2 0  14 2 0  16 2 0  18 2 0  20 2 0  22 2 0  24 2 0  26 2 0  28 2 0  30 2 0  32 2 0  34 2 0  36 2 0  38 2 0  40 2 0  42 2 0  44 2 0  46 2 0  48 2 0  50 2 0  52 2 0  54 2 0  56 2 0  58 2 0  60 2 0  62 2 0  64 2 0  66 2 0  68 2 0  70 2 0  72 2 0  74 2 0  76 2 0  78 2 0  80 2 0  82 2 0  84 2 0  86 2 0  88 2 0  90 2 0  92 2 0  94 2 0  96 2 0  98 2 0  100 2 0  102 2 0  104 2 0  106 2 0  108 2 0  110 2 0  112 2 0  114 2 0  116 2 0  118 2 0  120 2 0  122 2 0  124 2 0  126 2 0  128 2 0  130 2 0  132 2 0  134 2 0  136 2 0  138 2 0  140 2 0  142 2 0  144 2 0  146 2 0  148 2 0  150 2 0  152 2 0  154 2 0  156 2 0  158 2 0  160 2 0  162 2 0  164 2 0  166 2 0  168 2 0  170 2 0  172 2 0  174 2 0  176 2 0  178 2 0  180 2 0  182 2 0  184 2 0  186 2 0  188 2 0  190 2 0  192 2 0  194 2 0  196 2 0  198 2 0  200 2 0  0 4 0  2 4 0  4 4 0  6 4 0  8 4 0  10 4 0  12 4 0  14 4 0  16 4 0  18 4 0  20 4 0  22 4 0  24 4 0  26 4 0  28 4 0  30 4 0  32 4 0  34 4 0  36 4 0  38 4 0  40 4 0  42 4 0  44 4 0  46 4 0  48 4 0  50 4 0  52 4 0  54 4 0  56 4 0  58 4 0  60 4 0  62 4 0  64 4 0  66 4 0  68 4 0  70 4 0  72 4 0  74 4 0  76 4 0  78 4 0  80 4 0  82 4 0  84 4 0  86 4 0  88 4 0  90 4 0  92 4 0  94 4 0  96 4 0  98 4 0  100 4 0  102 4 0  104 4 0  106 4 0  108 4 0  110 4 0  112 4 0  114 4 0  116 4 0  118 4 0  120 4 0  122 4 0  124 4 0  126 4 0  128 4 0  130 4 0  132 4 0  134 4 0  136 4 0  138 4 0  140 4 0  142 4 0  144 4 0  146 4 0  148 4 0  150 4 0  152 4 0  154 4 0  156 4 0  158 4 0  160 4 0  162 4 0  164 4 0  166 4 0  168 4 0  170 4 0  172 4 0  174 4 0  176 4 0  178 4 0  180 4 0  182 4 0  184 4 0  186 4 0  188 4 0  190 4 0  192 4 0  194 4 0  196 4 0  198 4 0  200 4 0  0 6 0  2 6 0  4 6 0  6 6 0  8 6 0  10 6 0  12 6 0  14 6 0  16 6 0  18 6 0  20 6 0  22 6 0  24 6 0  26 6 0  28 6 0  30 6 0  32 6 0  34 6 0  36 6 0  38 6 0  40 6 0  42 6 0  44 6 0  46 6 0  48 6 0  50 6 0  52 6 0  54 6 0  56 6 0  58 6 0  60 6 0  62 6 0  64 6 0  66 6 0  68 6 0  70 6 0  72 6 0  74 6 0  76 6 0  78 6 0  80 6 0  82 6 0  84 6 0  86 6 0  88 6 0  90 6 0  92 6 0  94 6 0  96 6 0  98 6 0  100 6 0  102 6 0  104 6 0  106 6 0  108 6 0  110 6 0  112 6 0  114 6 0  116 6 0  118 6 0  120 6 0  122 6 0  124 6 0  126 6 0  128 6 0  130 6 0  132 6 0  134 6 0  136 6 0  138 6 0  140 6 0  142 6 0  144 6 0  146 6 0  148 6 0  150 6 0  152 6 0  154 6 0  156 6 0  158 6 0  160 6 0  162 6 0  164 6 0  166 6 0  168 6 0  170 6 0  172 6 0  174 6 0  176 6 0  178 6 0  180 6 0  182 6 0  184 6 0  186 6 0  188 6 0  190 6 0  192 6 0  194 6 0  196 6 0  198 6 0  200 6 0  0 8 0  2 8 0  4 8 0  6 8 0  8 8 0  10 8 0  12 8 0  14 8 0  16 8 0  18 8 0  20 8 0  22 8 0  24 8 0  26 8 0  28 8 0  30 8 0  32 8 0  34 8 0  36 8 0  38 8 0  40 8 0  42 8 0  44 8 0  46 8 0  48 8 0  50 8 0  52 8 0  54 8 0  56 8 0  58 8 0  60 8 0  62 8 0  64 8 0  66 8 0  68 8 0  70 8 0  72 8 0  74 8 0  76 8 0  78 8 0  80 8 0  82 8 0  84 8 0  86 8 0  88 8 0  90 8 0  92 8 0  94 8 0  96 8 0  98 8 0  100 8 0  102 8 0  104 8 0  106 8 0  108 8 0  110 8 0  112 8 0  114 8 0  116 8 0  118 8 0  120 8 0  122 8 0  124 8 0  126 8 0  128 8 0  130 8 0  132 8 0  134 8 0  136 8 0  138 8 0  140 8 0  142 8 0  144 8 0  146 8 0  148 8 0  150 8 0  152 8 0  154 8 0  156 8 0  158 8 0  160 8 0  162 8 0  164 8 0  166 8 0  168 8 0  170 8 0  172 8 0  174 8 0  176 8 0  178 8 0  180 8 0  182 8 0  184 8 0  186 8 0  188 8 0  190 8 0  192 8 0  194 8 0  196 8 0  198 8 0  200 8 0  0 10 0  2 10 0  4 10 0  6 10 0  8 10 0  10 10 0  12 10 0  14 10 0  16 10 0  18 10 0  20 10 0  22 10 0  24 10 0  26 10 0  28 10 0  30 10 0  32 10 0  34 10 0  36 10 0  38 10 0  40 10 0  42 10 0  44 10 0  46 10 0  48 10 0  50 10 0  52 10 0  54 10 0  56 10 0  58 10 0  60 10 0  62 10 0  64 10 0  66 10 0  68 10 0  70 10 0  72 10 0  74 10 0  76 10 0  78 10 0  80 10 0  82 10 0  84 10 0  86 10 0  88 10 0  90 10 0  92 10 0  94 10 0  96 10 0  98 10 0  100 10 0  102 10 0  104 10 0  106 10 0  108 10 0  110 10 0  112 10 0  114 10 0  116 10 0  118 10 0  120 10 0  122 10 0  124 10 0  126 10 0  128 10 0  130 10 0  132 10 0  134 10 0  136 10 0  138 10 0  140 10 0  142 10 0  144 10 0  146 10 0  148 10 0  150 10 0  152 10 0  154 10 0  156 10 0  158 10 0  160 10 0  162 10 0  164 10 0  166 10 0  168 10 0  170 10 0  172 10 0  174 10 0  176 10 0  178 10 0  180 10 0  182 10 0  184 10 0  186 10 0  188 10 0  190 10 0  192 10 0  194 10 0  196 10 0  198 10 0  200 10 0  0 12 0  2 12 0  4 12 0  6 12 0  8 12 0  10 12 0  12 12 0  14 12 0  16 12 0  18 12 0  20 12 0  22 12 0  24 12 0  26 12 0  28 12 0  30 12 0  32 12 0  34 12 0  36 12 0  38 12 0  40 12 0  42 12 0  44 12 0  46 12 0  48 12 0  50 12 0  52 12 0  54 12 0  56 12 0  58 12 0  60 12 0  62 12 0  64 12 0  66 12 0  68 12 0  70 12 0  72 12 0  74 12 0  76 12 0  78 12 0  80 12 0  82 12 0  84 12 0  86 12 0  88 12 0  90 12 0  92 12 0  94 12 0  96 12 0  98 12 0  100 12 0  102 12 0  104 12 0  106 12 0  108 12 0  110 12 0  112 12 0  114 12 0  116 12 0  118 12 0  120 12 0  122 12 0  124 12 0  126 12 0  128 12 0  130 12 0  132 12 0  134 12 0  136 12 0  138 12 0  140 12 0  142 12 0  144 12 0  146 12 0  148 12 0  150 12 0  152 12 0  154 12 0  156 12 0  158 12 0  160 12 0  162 12 0  164 12 0  166 12 0  168 12 0  170 12 0  172 12 0  174 12 0  176 12 0  178 12 0  180 12 0  182 12 0  184 12 0  186 12 0  188 12 0  190 12 0  192 12 0  194 12 0  196 12 0  198 12 0  200 12 0  0 14 0  2 14 0  4 14 0  6 14 0  8 14 0  10 14 0  12 14 0  14 14 0  16 14 0  18 14 0  20 14 0  22 14 0  24 14 0  26 14 0  28 14 0  30 14 0  32 14 0  34 14 0  36 14 0  38 14 0  40 14 0  42 14 0  44 14 0  46 14 0  48 14 0  50 14 0  52 14 0  54 14 0  56 14 0  58 14 0  60 14 0  62 14 0  64 14 0  66 14 0  68 14 0  70 14 0  72 14 0  74 14 0  76 14 0  78 14 0  80 14 0  82 14 0  84 14 0  86 14 0  88 14 0  90 14 0  92 14 0  94 14 0  96 14 0  98 14 0  100 14 0  102 14 0  104 14 0  106 14 0  108 14 0  110 14 0  112 14 0  114 14 0  116 14 0  118 14 0  120 14 0  122 14 0  124 14 0  126 14 0  128 14 0  130 14 0  132 14 0  134 14 0  136 14 0  138 14 0  140 14 0  142 14 0  144 14 0  146 14 0  148 14 0  150 14 0  152 14 0  154 14 0  156 14 0  158 14 0  160 14 0  162 14 0  164 14 0  166 14 0  168 14 0  170 14 0  172 14 0  174 14 0  176 14 0  178 14 0  180 14 0  182 14 0  184 14 0  186 14 0  188 14 0  190 14 0  192 14 0  194 14 0  196 14 0  198 14 0  200 14 0  0 16 0  2 16 0  4 16 0  6 16 0  8 16 0  10 16 0  12 16 0  14 16 0  16 16 0  18 16 0  20 16 0  22 16 0  24 16 0  26 16 0  28 16 0  30 16 0  32 16 0  34 16 0  36 16 0  38 16 0  40 16 0  42 16 0  44 16 0  46 16 0  48 16 0  50 16 0  52 16 0  54 16 0  56 16 0  58 16 0  60 16 0  62 16 0  64 16 0  66 16 0  68 16 0  70 16 0  72 16 0  74 16 0  76 16 0  78 16 0  80 16 0  82 16 0  84 16 0  86 16 0  88 16 0  90 16 0  92 16 0  94 16 0  96 16 0  98 16 0  100 16 0  102 16 0  104 16 0  106 16 0  108 16 0  110 16 0  112 16 0  114 16 0  116 16 0  118 16 0  120 16 0  122 16 0  124 16 0  126 16 0  128 16 0  130 16 0  132 16 0  134 16 0  136 16 0  138 16 0  140 16 0  142 16 0  144 16 0  146 16 0  148 16 0  150 16 0  152 16 0  154 16 0  156 16 0  158 16 0  160 16 0  162 16 0  164 16 0  166 16 0  168 16 0  170 16 0  172 16 0  174 16 0  176 16 0  178 16 0  180 16 0  182 16 0  184 16 0  186 16 0  188 16 0  190 16 0  192 16 0  194 16 0  196 16 0  198 16 0  200 16 0  0 18 0  2 18 0  4 18 0  6 18 0  8 18 0  10 18 0  12 18 0  14 18 0  16 18 0  18 18 0  20 18 0  22 18 0  24 18 0  26 18 0  28 18 0  30 18 0  32 18 0  34 18 0  36 18 0  38 18 0  40 18 0  42 18 0  44 18 0  46 18 0  48 18 0  50 18 0  52 18 0  54 18 0  56 18 0  58 18 0  60 18 0  62 18 0  64 18 0  66 18 0  68 18 0  70 18 0  72 18 0  74 18 0  76 18 0  78 18 0  80 18 0  82 18 0  84 18 0  86 18 0  88 18 0  90 18 0  92 18 0  94 18 0  96 18 0  98 18 0  100 18 0  102 18 0  104 18 0  106 18 0  108 18 0  110 18 0  112 18 0  114 18 0  116 18 0  118 18 0  120 18 0  122 18 0  124 18 0  126 18 0  128 18 0  130 18 0  132 18 0  134 18 0  136 18 0  138 18 0  140 18 0  142 18 0  144 18 0  146 18 0  148 18 0  150 18 0  152 18 0  154 18 0  156 18 0  158 18 0  160 18 0  162 18 0  164 18 0  166 18 0  168 18 0  170 18 0  172 18 0  174 18 0  176 18 0  178 18 0  180 18 0  182 18 0  184 18 0  186 18 0  188 18 0  190 18 0  192 18 0  194 18 0  196 18 0  198 18 0  200 18 0  0 20 0  2 20 0  4 20 0  6 20 0  8 20 0  10 20 0  12 20 0  14 20 0  16 20 0  18 20 0  20 20 0  22 20 0  24 20 0  26 20 0  28 20 0  30 20 0  32 20 0  34 20 0  36 20 0  38 20 0  40 20 0  42 20 0  44 20 0  46 20 0  48 20 0  50 20 0  52 20 0  54 20 0  56 20 0  58 20 0  60 20 0  62 20 0  64 20 0  66 20 0  68 20 0  70 20 0  72 20 0  74 20 0  76 20 0  78 20 0  80 20 0  82 20 0  84 20 0  86 20 0  88 20 0  90 20 0  92 20 0  94 20 0  96 20 0  98 20 0  100 20 0  102 20 0  104 20 0  106 20 0  108 20 0  110 20 0  112 20 0  114 20 0  116 20 0  118 20 0  120 20 0  122 20 0  124 20 0  126 20 0  128 20 0  130 20 0  132 20 0  134 20 0  136 20 0  138 20 0  140 20 0  142 20 0  144 20 0  146 20 0  148 20 0  150 20 0  152 20 0  154 20 0  156 20 0
[...]
<PointData  Scalars="f_271-3"> 
<DataArray  type="Float64"  Name="f_271-3"  format="ascii">7.7761667276117800e-03  7.2376556774478348e-03  5.8342165064718997e-03  4.0679488969729994e-03  2.4483216649081774e-03  1.2871423718493818e-03  6.7780282193513803e-04  5.8857818987225125e-04  9.4212453121129665e-04  1.6306822904818680e-03  2.5057515170552182e-03  3.3827261885074544e-03  4.0634424091065945e-03  4.3826384923910796e-03  4.2741938475524327e-03  3.8012862634672121e-03  3.1107221379049316e-03  2.3558038931198828e-03  1.6506806404589637e-03  1.0639128662692763e-03  6.2560220756476307e-04  3.3395802362086273e-04  1.6368603237419628e-04  7.9134705712843054e-05  4.8754181168173760e-05  5.5393270128296620e-05  9.9609579718828377e-05  1.9641255841184097e-04  3.6776485631304535e-04  6.3339060703858602e-04  1.0009374568469935e-03  1.4542822745440150e-03  1.9393709629293820e-03  2.3557595622071413e-03  2.5750993717244806e-03  2.4999467075771764e-03  2.1307789731559762e-03  1.5780073230243202e-03  1.0034698756296991e-03  5.4211633918620054e-04  2.5093230490311067e-04  1.0713126504296087e-04  5.8028312037983039e-05  6.9191538826059057e-05  1.2571534102594927e-04  2.1193797011626798e-04  3.0243696251663058e-04  3.6778393769627382e-04  3.8607268372325157e-04  3.5203301734186554e-04  2.7853256781038775e-04  1.9012020817995508e-04  1.1316423756785700e-04  6.7669997444635640e-05  6.2764076640352048e-05  9.5170908148424122e-05  1.4933041784016628e-04  1.9769377693436800e-04  1.9697757024452541e-04  1.0597971501857306e-04  2.3201895092961302e-05  9.1183097066699758e-06  1.7703514703650621e-05  2.0308729144154749e-05  5.8521577098691027e-06  1.3720142794611622e-06  2.0557504535186590e-06  7.0648598718614585e-06  8.2728035271348720e-05  7.0534302399932931e-04  1.8888456465651084e-03  2.9152618157860109e-03  3.6033181906253539e-03  3.8369841024414059e-03  3.6058466545104326e-03  3.0510896227152673e-03  2.3644793669872917e-03  1.6935068724704602e-03  1.1191763595691892e-03  6.7473492333470293e-04  3.6504661318784387e-04  1.7592587253549566e-04  7.9408355117147639e-05  4.1235079413541160e-05  3.2095856789185074e-05  4.0541209553489494e-05  8.4374620557220250e-05  2.2338104524132551e-04  6.1369716793061230e-04  1.8692596100793469e-03  7.5499754218176238e-03  4.1447501765516641e-02  2.3653518819369188e-01  7.0884617737341671e-01  9.3119640412410654e-01  9.8101903852307915e-01  9.9375207550064504e-01  9.9775423370147087e-01  9.9910693932699779e-01  9.9945701048835345e-01  9.9949117632563556e-01  7.3561841520737780e-03  6.8625466498500728e-03  5.5678121659892841e-03  3.9204087958464940e-03  2.3888200231017044e-03  1.2720736704514421e-03  6.6953843621248336e-04  5.6013996709291906e-04  8.7604033597164159e-04  1.5188611289725547e-03  2.3496769412862393e-03  3.1920227083160591e-03  3.8546242716013591e-03  4.1777183521211989e-03  4.0954685711030439e-03  3.6637905458787915e-03  3.0186672359278337e-03  2.3047977642989240e-03  1.6319455884754124e-03  1.0673933194414902e-03  6.4183111533215457e-04  3.5540351217231396e-04  1.8561919771187174e-04  9.9710952450565824e-05  6.8301366786773895e-05  7.5231875639253352e-05  1.2079064747703613e-04  2.1864972769145471e-04  3.8868081865735569e-04  6.4808461255947227e-04  1.0019317852403636e-03  1.4322396638971828e-03  1.8854495840654099e-03  2.2661758587328605e-03  2.4561467371873777e-03  2.3687635696517601e-03  2.0088702781139666e-03  1.4816800441722218e-03  9.3847764163542931e-04  5.0461744392594425e-04  2.3229749583652916e-04  9.9526902677658460e-05  5.7076829238198873e-05  7.2677378286711033e-05  1.3139500723602712e-04  2.1684232975011265e-04  3.0357497602012131e-04  3.6327509349747716e-04  3.7594296149458641e-04  3.3822989975107768e-04  2.6412446609508806e-04  1.7812050921527309e-04  1.0555776909814828e-04  6.4947092699843556e-05  6.3958172845287928e-05  9.8303676519503907e-05  1.5226762669870661e-04  1.9982779679850770e-04  2.0442981159876948e-04  1.3227849005393956e-04  4.5596272569475354e-05  2.2138742602669068e-05  2.7955721426725392e-05  2.5565936710624390e-05  9.7745756613651763e-06  3.1799247901737978e-06  4.1439662976284261e-06  1.4954742678425275e-05  1.3948699798305790e-04  8.0800576007269173e-04  1.8678234621721764e-03  2.7938189576127469e-03  3.4257302588220451e-03  3.6420534489413599e-03  3.4298813538614246e-03  2.9158552437750637e-03  2.2747708766765870e-03  1.6434687147144325e-03  1.0989485151300939e-03  6.7403667321358181e-04  3.7471609512227104e-04  1.8883572424808952e-04  9.1151027835497344e-05  5.0338099488869926e-05  3.9469309341635259e-05  4.8091786063115313e-05  9.3044507247233202e-05  2.3062910054768220e-04  6.0603448825505193e-04  1.7708941190262488e-03  6.7905146166463487e-03  3.4897889691773966e-02  1.9086539299415448e-01  6.3098805851333384e-01  9.0451570239042745e-01  9.7191342477762244e-01  9.8992900101276016e-01  9.9571272657057630e-01  9.9777924328837098e-01  9.9843003481855308e-01  9.9855041806487954e-01  6.2233338108339661e-03  5.8428602118809876e-03  4.8262461418686255e-03  3.4914827272564280e-03  2.2013653359856593e-03  1.2157667370347655e-03  6.4394933564809026e-04  4.9016027812691138e-04  7.1062597201007615e-04  1.2309266154406592e-03  1.9379924644509221e-03  2.6799085682027370e-03  3.2870404381989604e-03  3.6156490719886653e-03  3.6007930100459356e-03  3.2792984193044149e-03  2.7583813653723607e-03  2.1590865035710964e-03  1.5783130660443686e-03  1.0789364899341488e-03  6.9257900405080919e-04  4.2418656502681755e-04  2.5859895829883386e-04  1.7077718855875441e-04  1.3726211498399132e-04  1.4463368509062518e-04  1.9244511745954244e-04  2.9068766747207628e-04  4.5354389557718857e-04  6.9155647415006520e-04  1.0034210109609724e-03  1.3673118558535566e-03  1.7325849501942990e-03  2.0185929465000941e-03  2.1336619434611770e-03  2.0181932188283363e-03  1.6867211675660877e-03  1.2300072096323425e-03  7.7142857757147914e-04  4.1086436378543671e-04  1.8796507111741215e-04  8.3410436614082077e-05  5.7328891374402008e-05  8.2795018155291502e-05  1.4466189870856162e-04  2.2516265574306567e-04  2.9971391134121003e-04  3.4372453718453888e-04  3.4248766798659111e-04  2.9730113204252696e-04  2.2422279971237431e-04  1.4668051705442962e-04  8.6677593458262401e-05  5.8563358287404602e-05  6.6316712462768083e-05  1.0342626529337948e-04  1.5434833311253480e-04  1.9713217967332836e-04  2.0764152566025859e-04  1.7016200374620386e-04  1.0582061782102188e-04  6.5567083934133357e-05  4.9851989118183715e-05  3.8062354064527171e-05  2.8505118414077520e-05  2.3553157859267409e-05  3.1714893315252095e-05  8.8728520378542349e-05  3.5340006661076597e-04  9.7997133468049778e-04  1.7484720543925944e-03  2.4477959187445622e-03  2.9402941584322656e-03  3.1130482652276994e-03  2.9502706365973253e-03  2.5433186350234749e-03  2.0242402578352792e-03  1.5017034233407122e-03  1.0410585715145070e-03  6.7303946207492710e-04  4.0596983009839578e-04  2.3269765981142110e-04  1.3492516207516266e-04  8.8978110419810164e-05  7.4285638006074917e-05  8.3265297164266227e-05  1.3052651828434703e-04  2.6337812875111918e-04  5.9903060633839168e-04  1.5408851768524650e-03  5.0676119432566599e-03  2.1874999996035378e-02  1.0306377685776165e-01  3.9512754774912134e-01  7.7663483993261206e-01  9.2708154446117885e-01  9.7014294763475861e-01  9.8516739109361395e-01  9.9102477723790960e-01  9.9329718459679495e-01  9.9388346923728865e-01  4.7036691337806425e-03  4.4581107860328277e-03  3.7816381014174950e-03  2.8479712836544185e-03  1.8898941560806402e-03  1.1054266018432186e-03  6.0287910922498741e-04  4.1188643130898959e-04  5.1720502501120694e-04  8.7400730041680970e-04  1.4038479861083800e-03  1.9927391652064443e-03  2.5069723211641943e-03  2.8283514823066341e-03  2.8948455353744263e-03  2.7193246512380517e-03  2.3711763211788630e-03  1.9381787547475293e-03  1.4970040753103156e-03  1.1018462759569154e-03  7.8363161290234706e-04  5.5246381574984007e-04  4.0222883810644544e-04  3.1791368030049456e-04  2.8397656385417003e-04  2.9075521467315292e-04  3.3685780867096594e-04  4.2735076443860541e-04  5.6897995988983434e-04  7.6413178517180651e-04  1.0047984187483820e-03  1.2671849981786864e-03  1.5084066736924095e-03  1.6698951206410493e-03  1.6938857502705009e-03  1.5515871134926086e-03  1.2657291697987297e-03  9.0665907018777593e-04  5.6170312904017230e-04  2.9806426321064172e-04  1.3978412413784169e-04  7.1547454088581377e-05  6.5024899842340350e-05  9.9201050774276467e-05  1.5879184316609676e-04  2.2591065283778512e-04  2.7941552259439412e-04  3.0137461906847978e-04  2.8439483342891880e-04  2.3466625648025649e-04  1.6883682103545507e-04  1.0688352957358185e-04  6.5131147232170991e-05  5.2109532831505153e-05  6.7452942995879507e-05  1.0288966280506295e-04  1.4451795107041419e-04  1.7613801359342088e-04  1.8396988760683582e-04  1.6323043700093687e-04  1.2404242211933064e-04  8.6258898471451426e-05  6.1918392382332015e-05  5.4501427320056759e-05  6.5780545639300232e-05  9.3753449524199136e-05  1.4949818226653858e-04  2.8489128796391249e-04  5.6911791239144230e-04  9.9511771502453546e-04  1.4835715892767855e-03  1.9428174046024558e-03  2.2721396014095925e-03  2.3931586194889981e-03  2.2920209820680884e-03  2.0217338696748954e-03  1.6644193733378770e-03  1.2927761043948112e-03  9.5475434324985078e-04  6.7585699811677929e-04  4.6557494989412105e-04  3.2187159271368135e-04  2.3440923241693155e-04  1.8873979719762394e-04  1.7232048862346531e-04  1.8159791805279907e-04  2.2890148436123035e-04  3.5038186006640940e-04  6.2932050237936104e-04  1.3117821227293612e-03  3.3955317932817413e-03  1.1324613933921876e-02  4.2948808263275136e-02  1.5644087162607528e-01  4.4327143511492334e-01  7.4429539676451706e-01  8.8461842230330423e-01  9.3840684690802223e-01  9.6087384282375887e-01  9.7048565196309344e-01  9.7322930043975076e-01  3.1735819785232030e-03  3.0444542712431064e-03  2.6714436063516407e-03  2.1179989693313702e-03  1.5022459162410038e-03  9.5137142806627471e-04  5.5525528020961251e-04  3.5649262326722069e-04  3.6279169622869682e-04  5.5637255539030316e-04  8.9332170875322840e-04  1.3021843483774214e-03  1.6931351307228053e-03  1.9807530966016083e-03  2.1113031091703140e-03  2.0777919919813233e-03  1.9131983965913826e-03  1.6695821916308492e-03  1.3985260277337578e-03  1.1406520391546780e-03  9.2237777506493145e-04  7.5615180153296895e-04  6.4283509865447643e-04  5.7604738042089313e-04  5.4741798316690479e-04  5.5084830709021084e-04  5.8427418084971842e-04  6.4858904748975852e-04  7.4450441044174006e-04  8.6865342468647820e-04  1.0101242460600172e-03  1.1483169706412682e-03  1.2533485784948894e-03  1.2911782617042252e-03  1.2350135561973320e-03  1.0797625611437148e-03  8.5015583453153601e-04  5.9434143246743379e-04  3.6504528855172417e-04  1.9909132291549657e-04  1.0648424589272699e-04  7.5128289304539529e-05  8.5775784877051520e-05  1.2207724468426650e-04  1.6989867309610677e-04  2.1424463669916487e-04  2.4059709256505743e-04  2.3960870702638895e-04  2.1104081208250599e-04  1.6391777775244976e-04  1.1260538626859571e-04  7.1159571369037086e-05  4.8860330444354283e-05  4.8314594035616485e-05  6.5839005943826327e-05  9.3236808004648866e-05  1.2026195523290061e-04  1.3741125921607993e-04  1.3885562355560953e-04  1.2493994470678214e-04  1.0264364728263233e-04  8.2485476929976422e-05  7.3969551862557818e-05  8.3525832558045370e-05  1.1469002074047702e-04  1.6975156138231181e-04  2.5611658500589824e-04  3.9117223494285864e-04  5.8872264802918139e-04  8.4209614212070580e-04  1.1230413951190076e-03  1.3852653437329957e-03  1.5747835133128206e-03  1.6507862937993102e-03  1.6049328792224489e-03  1.4622846720612928e-03  1.2647508659931628e-03  1.0525990076863626e-03  8.5507893017047949e-04  6.8947734764641228e-04  5.6328061769861403e-04  4.7634409403708098e-04  4.2301027918860705e-04  3.9510697885825166e-04  3.8611949378647626e-04  3.9591232760356672e-04  4.3519935828902767e-04  5.3043114507152363e-04  7.3576372398517548e-04  1.1825795783059812e-03  2.2905375004451238e-03  5.5685517540251259e-03  1.6168586389643944e-02  4.8895206356770735e-02  1.3798307844603952e-01  3.2478528345139901e-01  5.5881994410271807e-01  7.2450797828280389e-01  8.1263316356658910e-01  8.5565706159891919e-01  8.6889762272894933e-01  1.9068612027281473e-03  1.8570316425422964e-03  1.6995809303685578e-03  1.4368450010267739e-03  1.1094829986146180e-03  7.8214195776519959e-04  5.1400317318558986e-04  3.4403086510061262e-04  2.9077766521452706e-04  3.5531799679744381e-04  5.2140191903640796e-04  7.5493233602450134e-04  1.0080586717569622e-03  1.2304603443899914e-03  1.3841781492833197e-03  1.4539028523285790e-03  1.4470351216645230e-03  1.3853611402256689e-03  1.2949214160343817e-03  1.1988449232132943e-03  1.1137648935249009e-03  1.0485997600442095e-03  1.0050088826270506e-03  9.7945538495664095e-04  9.6642369699719022e-04  9.6153624483617090e-04  9.6312261712857129e-04  9.7159017085070222e-04  9.8717408177723598e-04  1.0073829122227195e-03  1.0253262560430644e-03  1.0295883737404061e-03  1.0060459503768617e-03  9.4193844657400436e-04  8.3168756997359491e-04  6.8204789246304105e-04  5.1286655095580166e-04  3.5148393529348029e-04  2.2293272721050320e-04  1.4099553765641206e-04  1.0497670923173818e-04  1.0377402899258578e-04  1.2333919909490642e-04  1.5128834060287118e-04  1.7725544585028570e-04  1.9247891829320579e-04  1.9101248149391820e-04  1.7173433398708112e-04  1.3915386725924815e-04  1.0189391174957114e-04  6.9400886289817246e-05  4.8601211943878000e-05  4.2035949704973375e-05  4.7898121026620103e-05  6.1442130564045048e-05  7.6927412363565715e-05  8.9424683799403456e-05  9.6130428377283071e-05  9.7056588362439552e-05  9.4967233937252071e-05  9.4407495440165286e-05  1.0006100045452810e-04  1.1532349073606014e-04  1.4188835946097366e-04  1.8033288541049696e-04  2.3144622489968726e-04  2.9779235166794879e-04  3.8362115805433764e-04  4.9175225216733858e-04  6.1930794469057234e-04  7.5503965527443811e-04  8.7991028171599095e-04  9.7215103010219741e-04  1.0158795141156261e-03  1.0082667602498120e-03  9.6013341404054247e-04  8.9020510062880860e-04  8.1784507569085613e-04  7.5826031472247353e-04  7.2061724273200279e-04  7.0761860564301515e-04  7.1570739542557759e-04  7.3637052211469607e-04  7.5927020002879099e-04  7.7683296314067440e-04  7.8871413235649581e-04  8.0471210202329906e-04  8.4643067729458816e-04  9.5099147525343338e-04  1.1872530588277156e-03  1.7174755481777992e-03  2.9984263278406364e-03  6.3197976763805820e-03  1.4949621752763907e-02  3.5653350819315643e-02  7.9484199801807626e-02  1.5780028060655640e-01  2.6225203320209767e-01  3.6875145492125377e-01  4.5058503376128561e-01  4.8161749441470014e-01  1.0181993284835331e-03  1.0101217447970620e-03  9.7391569076053124e-04  8.9278184530083306e-04  7.6964235465715018e-04  6.2623765335521994e-04  4.8944824349236122e-04  3.8184297045934593e-04  3.1884356932442937e-04  3.0856060415862481e-04  3.5146498464384276e-04  4.3990188810651566e-04  5.5908785348317963e-04  6.9074861693863108e-04  8.1854431116363852e-04  9.3264169579026514e-04  1.0310301959250748e-03  1.1174173930375731e-03  1.1976367306302032e-03  1.2765808586666712e-03  1.3562029994363259e-03  1.4341153466264820e-03  1.5028944399928486e-03  1.5512808561237927e-03  1.5679968838072285e-03  1.5466469146296436e-03  1.4884939888426278e-03  1.4011719239785262e-03  1.2945817463474135e-03  1.1769671952512610e-03  1.0531347054546763e-03  9.2483882621147888e-04  7.9244928809067802e-04  6.5711688107821160e-04  5.2274637577890434e-04  3.9683771265826366e-04  2.8931759306515534e-04  2.0940140033849435e-04  1.6182209055606446e-04  1.4445003022704937e-04  1.4884290106971512e-04  1.6356012236625608e-04  1.7811664028864583e-04  1.8529736141943316e-04  1.8149454095192267e-04  1.6623327142020042e-04  1.4172026895654935e-04  1.1231731232079651e-04  8.3537867276388587e-05  6.0524540331835541e-05  4.6477502501191803e-05  4.1728236987658052e-05  4.3955504795934865e-05  4.9519193154400573e-05  5.5279398342968559e-05  5.9999364071036603e-05  6.4746400721560948e-05  7.2280200073695031e-05  8.5788518013630416e-05  1.0743230963856194e-04  1.3719547611942462e-04  1.7254500932680874e-04  2.0919973613614382e-04  2.4278923856398891e-04  2.7068342640485025e-04  2.9318274218564244e-04  3.1352792806421003e-04  3.3659850830250308e-04  3.6669374948187963e-04  4.0526569959057517e-04  4.4963312477987541e-04  4.9349889393069909e-04  5.2949423664237273e-04  5.5287467201237334e-04  5.6447251666574621e-04  5.7123620485942687e-04  5.8428013563918690e-04  6.1581430623066811e-04  6.7625730379060204e-04  7.7164250448323948e-04  9.0072731170336162e-04  1.0522154100248290e-03  1.2044878199585871e-03  1.3305206121678706e-03  1.4074664228347360e-03  1.4262003398664083e-03  1.3957313525384139e-03  1.3414982302475858e-03  1.3011128643964764e-03  1.3235794672695799e-03  1.4812207978658547e-03  1.9117583888491527e-03  2.9199255879818007e-03  5.1574112736197794e-03  9.8350610515845482e-03  1.8742178978995289e-02  3.3559826799297462e-02  5.5096529587352706e-02  8.1674516673052588e-02  1.0612331920476861e-01  1.1647081582012704e-01  5.0296529297813261e-04  5.0697332536339169e-04  5.1438459683011918e-04  5.1739707319361258e-04  5.1269019645238973e-04  5.0128199280674406e-04  4.8495353454131534e-04  4.6461604717056829e-04  4.4109123189397994e-04  4.1647755800355764e-04  3.9473603505591338e-04  3.8155337642112742e-04  3.8406866349441376e-04  4.1042130159159388e-04  4.6877687591275868e-04  5.6602217275073430e-04  7.0651876401862164e-04  8.9090539033892687e-04  1.1150331264532395e-03  1.3695112120476747e-03  1.6396033335890710e-03  1.9042139952469550e-03  2.1344365928824883e-03  2.2957671288158584e-03  2.3575670196458597e-03  2.3060989500514120e-03  2.1512076881703003e-03  1.9209193295976902e-03  1.6490046943780075e-03  1.3649234063549279e-03  1.0903403515170535e-03  8.4008743226292315e-04  6.2408679718336992e-04  4.4864686375928353e-04  3.1709508946793592e-04  2.2992728296034431e-04  1.8448012579337211e-04  1.7434671168028599e-04  1.8919614425963254e-04  2.1578369883173173e-04  2.4042550924370035e-04  2.5222275019394649e-04  2.4559395822062617e-04  2.2096731889835924e-04  1.8357158667057811e-04  1.4113143354640485e-04  1.0140396883840062e-04  7.0219465318245103e-05  5.0416569680297144e-05  4.1770070677968484e-05  4.1609243332171443e-05  4.5723407268428138e-05  4.9647296769928613e-05  5.0549353797135618e-05  4.8996886543696273e-05  4.9313927186246786e-05  5.8129031145601118e-05  8.1802044990374301e-05  1.2367964614183008e-04  1.8199889817139544e-04  2.4925852423403951e-04  3.1371059105355346e-04  3.6283955319375713e-04  3.8756787133999051e-04  3.8534684585593315e-04  3.6080356968572663e-04  3.2382981561361401e-04  2.8607083683765292e-04  2.5720895930505470e-04  2.4229317733626352e-04  2.4092323123453901e-04  2.4855308701588873e-04  2.5955328701900339e-04  2.7097298209780940e-04  2.8546360272301821e-04  3.1208920676137667e-04  3.6488601844710981e-04  4.6023964467839572e-04  6.1410161293915129e-04  8.3840403916459795e-04  1.1346506426718965e-03  1.4847324051995507e-03  1.8447328306136518e-03  2.1508126050469888e-03  2.3401483888720437e-03  2.3770776846561764e-03  2.2680295018918449e-03  2.0568174637337179e-03  1.8065926884378964e-03  1.5818074064256761e-03  1.4400175610507565e-03  1.4374755405520659e-03  1.6491713721435827e-03  2.2003889439060672e-03  3.2959430863874913e-03  5.2111412472960464e-03  8.2264825101835189e-03  1.2462766091284955e-02  1.7514239984621194e-02  2.1994455087660278e-02  2.3845799819314093e-02  3.0231492111003637e-04  2.9758241173062091e-04  2.9237010294554480e-04  3.0431169283546639e-04  3.4485709208017406e-04  4.1301310976568927e-04  4.9641346269454708e-04  5.7577919662048184e-04  6.3115025978338667e-04  6.4780648563425515e-04  6.1997128438189832e-04  5.5275580677039240e-04  4.6341570226900912e-04  3.8035416745589768e-04  3.3763655479841694e-04  3.6679224303359467e-04  4.9038030916298255e-04  7.1902155799121652e-04  1.0503678018932063e-03  1.4689203482980404e-03  1.9459534770587816e-03  2.43716850384