<?xml version="1.0"?>
<VTKFile type="UnstructuredGrid"  version="0.1"  >
<UnstructuredGrid>
<Piece  NumberOfPoints="20201" NumberOfCells="40000">
<Points>
<DataArray  type="Float64"  NumberOfComponents="3"  format="ascii">0 0 0  2 0 0  4 0 0  6 0 0  8 0 0  10 0 0  12 0 0  14 0 0  16 0 0  18 0 0  20 0 0  22 0 0  24 0 0  26 0 0  28 0 0  30 0 0  32 0 0  34 0 0  36 0 0  38 0 0  40 0 0  42 0 0  44 0 0  46 0 0  48 0 0  50 0 0  52 0 0  54 0 0  56 0 0  58 0 0  60 0 0  62 0 0  64 0 0  66 0 0  68 0 0  70 0 0  72 0 0  74 0 0  76 0 0  78 0 0  80 0 0  82 0 0  84 0 0  86 0 0  88 0 0  90 0 0  92 0 0  94 0 0  96 0 0  98 0 0  100 0 0  102 0 0  104 0 0  106 0 0  108 0 0  110 0 0  112 0 0  114 0 0  116 0 0  118 0 0  120 0 0  122 0 0  124 0 0  126 0 0  128 0 0  130 0 0  132 0 0  134 0 0  136 0 0  138 0 0  140 0 0  142 0 0  144 0 0  146 0 0  148 0 0  150 0 0  152 0 0  154 0 0  156 0 0  158 0 0  160 0 0  162 0 0  164 0 0  166 0 0  168 0 0  170 0 0  172 0 0  174 0 0  176 0 0  178 0 0  180 0 0  182 0 0  184 0 0  186 0 0  188 0 0  190 0 0  192 0 0  194 0 0  196 0 0  198 0 0  200 0 0  0 2 0  2 2 0  4 2 0  6 2 0  8 2 0  10 2 0  12 2 0  14 2 0  16 2 0  18 2 0  20 2 0  22 2 0  24 2 0  26 2 0  28 2 0  30 2 0  32 2 0  34 2 0  36 2 0  38 2 0  40 2 0  42 2 0  44 2 0  46 2 0  48 2 0  50 2 0  52 2 0  54 2 0  56 2 0  58 2 0  60 2 0  62 2 0  64 2 0  66 2 0  68 2 0  70 2 0  72 2 0  74 2 0  76 2 0  78 2 0  80 2 0  82 2 0  84 2 0  86 2 0  88 2 0  90 2 0  92 2 0  94 2 0  96 2 0  98 2 0  100 2 0  102 2 0  104 2 0  106 2 0  108 2 0  110 2 0  112 2 0  114 2 0  116 2 0  118 2 0  120 2 0  122 2 0  124 2 0  126 2 0  128 2 0  130 2 0  132 2 0  134 2 0  136 2 0  138 2 0  140 2 0  142 2 0  144 2 0  146 2 0  148 2 0  150 2 0  152 2 0  154 2 0  156 2 0  158 2 0  160 2 0  162 2 0  164 2 0  166 2 0  168 2 0  170 2 0  172 2 0  174 2 0  176 2 0  178 2 0  180 2 0  182 2 0  184 2 0  186 2 0  188 2 0  190 2 0  192 2 0  194 2 0  196 2 0  198 2 0  200 2 0  0 4 0  2 4 0  4 4 0  6 4 0  8 4 0  10 4 0  12 4 0  14 4 0  16 4 0  18 4 0  20 4 0  22 4 0  24 4 0  26 4 0  28 4 0  30 4 0  32 4 0  34 4 0  36 4 0  38 4 0  40 4 0  42 4 0  44 4 0  46 4 0  48 4 0  50 4 0  52 4 0  54 4 0  56 4 0  58 4 0  60 4 0  62 4 0  64 4 0  66 4 0  68 4 0  70 4 0  72 4 0  74 4 0  76 4 0  78 4 0  80 4 0  82 4 0  84 4 0  86 4 0  88 4 0  90 4 0  92 4 0  94 4 0  96 4 0  98 4 0  100 4 0  102 4 0  104 4 0  106 4 0  108 4 0  110 4 0  112 4 0  114 4 0  116 4 0  118 4 0  120 4 0  122 4 0  124 4 0  126 4 0  128 4 0  130 4 0  132 4 0  134 4 0  136 4 0  138 4 0  140 4 0  142 4 0  144 4 0  146 4 0  148 4 0  150 4 0  152 4 0  154 4 0  156 4 0  158 4 0  160 4 0  162 4 0  164 4 0  166 4 0  168 4 0  170 4 0  172 4 0  174 4 0  176 4 0  178 4 0  180 4 0  182 4 0  184 4 0  186 4 0  188 4 0  190 4 0  192 4 0  194 4 0  196 4 0  198 4 0  200 4 0  0 6 0  2 6 0  4 6 0  6 6 0  8 6 0  10 6 0  12 6 0  14 6 0  16 6 0  18 6 0  20 6 0  22 6 0  24 6 0  26 6 0  28 6 0  30 6 0  32 6 0  34 6 0  36 6 0  38 6 0  40 6 0  42 6 0  44 6 0  46 6 0  48 6 0  50 6 0  52 6 0  54 6 0  56 6 0  58 6 0  60 6 0  62 6 0  64 6 0  66 6 0  68 6 0  70 6 0  72 6 0  74 6 0  76 6 0  78 6 0  80 6 0  82 6 0  84 6 0  86 6 0  88 6 0  90 6 0  92 6 0  94 6 0  96 6 0  98 6 0  100 6 0  102 6 0  104 6 0  106 6 0  108 6 0  110 6 0  112 6 0  114 6 0  116 6 0  118 6 0  120 6 0  122 6 0  124 6 0  126 6 0  128 6 0  130 6 0  132 6 0  134 6 0  136 6 0  138 6 0  140 6 0  142 6 0  144 6 0  146 6 0  148 6 0  150 6 0  152 6 0  154 6 0  156 6 0  158 6 0  160 6 0  162 6 0  164 6 0  166 6 0  168 6 0  170 6 0  172 6 0  174 6 0  176 6 0  178 6 0  180 6 0  182 6 0  184 6 0  186 6 0  188 6 0  190 6 0  192 6 0  194 6 0  196 6 0  198 6 0  200 6 0  0 8 0  2 8 0  4 8 0  6 8 0  8 8 0  10 8 0  12 8 0  14 8 0  16 8 0  18 8 0  20 8 0  22 8 0  24 8 0  26 8 0  28 8 0  30 8 0  32 8 0  34 8 0  36 8 0  38 8 0  40 8 0  42 8 0  44 8 0  46 8 0  48 8 0  50 8 0  52 8 0  54 8 0  56 8 0  58 8 0  60 8 0  62 8 0  64 8 0  66 8 0  68 8 0  70 8 0  72 8 0  74 8 0  76 8 0  78 8 0  80 8 0  82 8 0  84 8 0  86 8 0  88 8 0  90 8 0  92 8 0  94 8 0  96 8 0  98 8 0  100 8 0  102 8 0  104 8 0  106 8 0  108 8 0  110 8 0  112 8 0  114 8 0  116 8 0  118 8 0  120 8 0  122 8 0  124 8 0  126 8 0  128 8 0  130 8 0  132 8 0  134 8 0  136 8 0  138 8 0  140 8 0  142 8 0  144 8 0  146 8 0  148 8 0  150 8 0  152 8 0  154 8 0  156 8 0  158 8 0  160 8 0  162 8 0  164 8 0  166 8 0  168 8 0  170 8 0  172 8 0  174 8 0  176 8 0  178 8 0  180 8 0  182 8 0  184 8 0  186 8 0  188 8 0  190 8 0  192 8 0  194 8 0  196 8 0  198 8 0  200 8 0  0 10 0  2 10 0  4 10 0  6 10 0  8 10 0  10 10 0  12 10 0  14 10 0  16 10 0  18 10 0  20 10 0  22 10 0  24 10 0  26 10 0  28 10 0  30 10 0  32 10 0  34 10 0  36 10 0  38 10 0  40 10 0  42 10 0  44 10 0  46 10 0  48 10 0  50 10 0  52 10 0  54 10 0  56 10 0  58 10 0  60 10 0  62 10 0  64 10 0  66 10 0  68 10 0  70 10 0  72 10 0  74 10 0  76 10 0  78 10 0  80 10 0  82 10 0  84 10 0  86 10 0  88 10 0  90 10 0  92 10 0  94 10 0  96 10 0  98 10 0  100 10 0  102 10 0  104 10 0  106 10 0  108 10 0  110 10 0  112 10 0  114 10 0  116 10 0  118 10 0  120 10 0  122 10 0  124 10 0  126 10 0  128 10 0  130 10 0  132 10 0  134 10 0  136 10 0  138 10 0  140 10 0  142 10 0  144 10 0  146 10 0  148 10 0  150 10 0  152 10 0  154 10 0  156 10 0  158 10 0  160 10 0  162 10 0  164 10 0  166 10 0  168 10 0  170 10 0  172 10 0  174 10 0  176 10 0  178 10 0  180 10 0  182 10 0  184 10 0  186 10 0  188 10 0  190 10 0  192 10 0  194 10 0  196 10 0  198 10 0  200 10 0  0 12 0  2 12 0  4 12 0  6 12 0  8 12 0  10 12 0  12 12 0  14 12 0  16 12 0  18 12 0  20 12 0  22 12 0  24 12 0  26 12 0  28 12 0  30 12 0  32 12 0  34 12 0  36 12 0  38 12 0  40 12 0  42 12 0  44 12 0  46 12 0  48 12 0  50 12 0  52 12 0  54 12 0  56 12 0  58 12 0  60 12 0  62 12 0  64 12 0  66 12 0  68 12 0  70 12 0  72 12 0  74 12 0  76 12 0  78 12 0  80 12 0  82 12 0  84 12 0  86 12 0  88 12 0  90 12 0  92 12 0  94 12 0  96 12 0  98 12 0  100 12 0  102 12 0  104 12 0  106 12 0  108 12 0  110 12 0  112 12 0  114 12 0  116 12 0  118 12 0  120 12 0  122 12 0  124 12 0  126 12 0  128 12 0  130 12 0  132 12 0  134 12 0  136 12 0  138 12 0  140 12 0  142 12 0  144 12 0  146 12 0  148 12 0  150 12 0  152 12 0  154 12 0  156 12 0  158 12 0  160 12 0  162 12 0  164 12 0  166 12 0  168 12 0  170 12 0  172 12 0  174 12 0  176 12 0  178 12 0  180 12 0  182 12 0  184 12 0  186 12 0  188 12 0  190 12 0  192 12 0  194 12 0  196 12 0  198 12 0  200 12 0  0 14 0  2 14 0  4 14 0  6 14 0  8 14 0  10 14 0  12 14 0  14 14 0  16 14 0  18 14 0  20 14 0  22 14 0  24 14 0  26 14 0  28 14 0  30 14 0  32 14 0  34 14 0  36 14 0  38 14 0  40 14 0  42 14 0  44 14 0  46 14 0  48 14 0  50 14 0  52 14 0  54 14 0  56 14 0  58 14 0  60 14 0  62 14 0  64 14 0  66 14 0  68 14 0  70 14 0  72 14 0  74 14 0  76 14 0  78 14 0  80 14 0  82 14 0  84 14 0  86 14 0  88 14 0  90 14 0  92 14 0  94 14 0  96 14 0  98 14 0  100 14 0  102 14 0  104 14 0  106 14 0  108 14 0  110 14 0  112 14 0  114 14 0  116 14 0  118 14 0  120 14 0  122 14 0  124 14 0  126 14 0  128 14 0  130 14 0  132 14 0  134 14 0  136 14 0  138 14 0  140 14 0  142 14 0  144 14 0  146 14 0  148 14 0  150 14 0  152 14 0  154 14 0  156 14 0  158 14 0  160 14 0  162 14 0  164 14 0  166 14 0  168 14 0  170 14 0  172 14 0  174 14 0  176 14 0  178 14 0  180 14 0  182 14 0  184 14 0  186 14 0  188 14 0  190 14 0  192 14 0  194 14 0  196 14 0  198 14 0  200 14 0  0 16 0  2 16 0  4 16 0  6 16 0  8 16 0  10 16 0  12 16 0  14 16 0  16 16 0  18 16 0  20 16 0  22 16 0  24 16 0  26 16 0  28 16 0  30 16 0  32 16 0  34 16 0  36 16 0  38 16 0  40 16 0  42 16 0  44 16 0  46 16 0  48 16 0  50 16 0  52 16 0  54 16 0  56 16 0  58 16 0  60 16 0  62 16 0  64 16 0  66 16 0  68 16 0  70 16 0  72 16 0  74 16 0  76 16 0  78 16 0  80 16 0  82 16 0  84 16 0  86 16 0  88 16 0  90 16 0  92 16 0  94 16 0  96 16 0  98 16 0  100 16 0  102 16 0  104 16 0  106 16 0  108 16 0  110 16 0  112 16 0  114 16 0  116 16 0  118 16 0  120 16 0  122 16 0  124 16 0  126 16 0  128 16 0  130 16 0  132 16 0  134 16 0  136 16 0  138 16 0  140 16 0  142 16 0  144 16 0  146 16 0  148 16 0  150 16 0  152 16 0  154 16 0  156 16 0  158 16 0  160 16 0  162 16 0  164 16 0  166 16 0  168 16 0  170 16 0  172 16 0  174 16 0  176 16 0  178 16 0  180 16 0  182 16 0  184 16 0  186 16 0  188 16 0  190 16 0  192 16 0  194 16 0  196 16 0  198 16 0  200 16 0  0 18 0  2 18 0  4 18 0  6 18 0  8 18 0  10 18 0  12 18 0  14 18 0  16 18 0  18 18 0  20 18 0  22 18 0  24 18 0  26 18 0  28 18 0  30 18 0  32 18 0  34 18 0  36 18 0  38 18 0  40 18 0  42 18 0  44 18 0  46 18 0  48 18 0  50 18 0  52 18 0  54 18 0  56 18 0  58 18 0  60 18 0  62 18 0  64 18 0  66 18 0  68 18 0  70 18 0  72 18 0  74 18 0  76 18 0  78 18 0  80 18 0  82 18 0  84 18 0  86 18 0  88 18 0  90 18 0  92 18 0  94 18 0  96 18 0  98 18 0  100 18 0  102 18 0  104 18 0  106 18 0  108 18 0  110 18 0  112 18 0  114 18 0  116 18 0  118 18 0  120 18 0  122 18 0  124 18 0  126 18 0  128 18 0  130 18 0  132 18 0  134 18 0  136 18 0  138 18 0  140 18 0  142 18 0  144 18 0  146 18 0  148 18 0  150 18 0  152 18 0  154 18 0  156 18 0  158 18 0  160 18 0  162 18 0  164 18 0  166 18 0  168 18 0  170 18 0  172 18 0  174 18 0  176 18 0  178 18 0  180 18 0  182 18 0  184 18 0  186 18 0  188 18 0  190 18 0  192 18 0  194 18 0  196 18 0  198 18 0  200 18 0  0 20 0  2 20 0  4 20 0  6 20 0  8 20 0  10 20 0  12 20 0  14 20 0  16 20 0  18 20 0  20 20 0  22 20 0  24 20 0  26 20 0  28 20 0  30 20 0  32 20 0  34 20 0  36 20 0  38 20 0  40 20 0  42 20 0  44 20 0  46 20 0  48 20 0  50 20 0  52 20 0  54 20 0  56 20 0  58 20 0  60 20 0  62 20 0  64 20 0  66 20 0  68 20 0  70 20 0  72 20 0  74 20 0  76 20 0  78 20 0  80 20 0  82 20 0  84 20 0  86 20 0  88 20 0  90 20 0  92 20 0  94 20 0  96 20 0  98 20 0  100 20 0  102 20 0  104 20 0  106 20 0  108 20 0  110 20 0  112 20 0  114 20 0  116 20 0  118 20 0  120 20 0  122 20 0  124 20 0  126 20 0  128 20 0  130 20 0  132 20 0  134 20 0  136 20 0  138 20 0  140 20 0  142 20 0  144 20 0  146 20 0  148 20 0  150 20 0  152 20 0  154 20 0  156 20 0
[...]
<PointData  Scalars="f_271-3"> 
<DataArray  type="Float64"  Name="f_271-3"  format="ascii">2.0900164304419110e-02  1.9378178633316180e-02  1.5430273794768632e-02  1.0516032372193835e-02  6.0941313356896306e-03  3.0083968952344400e-03  1.4531776778763112e-03  1.2967709135572809e-03  2.3251653205438785e-03  4.2534318196636323e-03  6.6773545220514593e-03  9.0977922443761447e-03  1.0974438331835094e-02  1.1836074828952405e-02  1.1489874439827482e-02  1.0133612135377465e-02  8.2054290976459263e-03  6.1372864194607166e-03  4.2323559866665776e-03  2.6666892295892147e-03  1.5158560853453424e-03  7.6905115546924911e-04  3.4931729858552672e-04  1.5146864208361073e-04  8.4491851936121327e-05  1.0067403111687227e-04  2.0396359643098515e-04  4.3969807531126507e-04  8.7293894761522085e-04  1.5633200430230298e-03  2.5398703767564837e-03  3.7710873933914108e-03  5.1229361026046260e-03  6.3213327470298215e-03  6.9876200491379454e-03  6.8127460440363862e-03  5.7818988026518831e-03  4.2223966181114611e-03  2.6139677376284779e-03  1.3501786881152059e-03  5.8835039235347465e-04  2.3548257570720212e-04  1.1865888257839133e-04  1.4823306457119266e-04  3.0037461505413762e-04  5.4061974094672834e-04  7.9873604942763655e-04  9.8943715012229081e-04  1.0475720442054651e-03  9.5600938050588035e-04  7.5083337471503126e-04  5.0200998098408746e-04  2.8426780533451451e-04  1.5411424462686497e-04  1.3799617326800697e-04  2.2863356634350820e-04  3.8544890049354061e-04  5.3652895852496240e-04  5.7708972082539062e-04  3.8948360381680795e-04  1.2564864272395713e-04  5.5308295181385397e-05  7.5185972894313362e-05  6.9420091823096662e-05  2.4600741416328330e-05  1.0231098368337038e-05  1.7443529538863414e-05  5.3256556288830450e-05  3.8657452883745976e-04  2.2087195517000464e-03  5.1638055748035013e-03  7.8845574535448670e-03  9.8047068535907882e-03  1.0433108592295209e-02  9.7239664285508343e-03  8.1283154884755678e-03  6.2164456363083048e-03  4.3895406732142499e-03  2.8486843354255911e-03  1.6706423338475941e-03  8.6352292354064503e-04  3.8636092394426239e-04  1.5915599459913812e-04  8.2374375974434645e-05  6.8776124055722299e-05  8.0521965771144613e-05  1.5957992052684317e-04  4.4605847332924921e-04  1.2269649082225053e-03  3.2777303780015675e-03  1.0115678130072305e-02  4.3142761528670970e-02  2.2039955891030308e-01  6.7370664200968422e-01  9.1614279881473859e-01  9.7473926063793992e-01  9.9137847401663270e-01  9.9742548843046819e-01  9.9950920148966793e-01  9.9975127092833327e-01  9.9959681279041523e-01  1.9731286405657560e-02  1.8347953198321675e-02  1.4728837882900296e-02  1.0160321292105113e-02  5.9793428822195547e-03  3.0017530857705437e-03  1.4488758311556138e-03  1.2229092882230376e-03  2.1361115029450831e-03  3.9310376073258546e-03  6.2317817312680960e-03  8.5587814574533874e-03  1.0387097802890275e-02  1.1262225950912277e-02  1.0994426783995917e-02  9.7590421091573957e-03  7.9605055328633972e-03  6.0061704489057276e-03  4.1884126238356124e-03  2.6809000360098361e-03  1.5613574812062894e-03  8.2485035698012950e-04  4.0287549713759083e-04  1.9881911779181011e-04  1.2796174830850669e-04  1.4535265806627206e-04  2.5406706873902973e-04  4.9557579929178093e-04  9.2898405785787148e-04  1.6066552165443235e-03  2.5497471189650099e-03  3.7199461595607930e-03  4.9820850976277911e-03  6.0746261336835448e-03  6.6494405330734217e-03  6.4337374021873912e-03  5.4286058338652689e-03  3.9447925958628798e-03  2.4286404364773943e-03  1.2446965736222526e-03  5.3606271242744388e-04  2.1314538666918650e-04  1.1504403927594847e-04  1.5889046302722663e-04  3.1983659727608720e-04  5.6011914092197015e-04  8.0854675574041528e-04  9.8260843751666032e-04  1.0228489251663437e-03  9.1843103793339692e-04  7.0953880358713738e-04  4.6655546357206020e-04  2.6145127227349981e-04  1.4635662946840385e-04  1.4322915878576774e-04  2.4135023333907811e-04  3.9887784518450020e-04  5.4665667711709608e-04  5.9300225441088876e-04  4.4748256823537403e-04  2.0197704309520226e-04  1.0402051314965563e-04  1.0221953228097871e-04  7.8882382567624032e-05  3.5914690733371801e-05  1.9650183262156257e-05  2.9996974261534809e-05  9.5134459504828543e-05  5.7926684347910161e-04  2.4249501123736012e-03  5.0714830013750415e-03  7.5387691106502406e-03  9.2959728671703473e-03  9.8755629863606278e-03  9.2291841383377350e-03  7.7577723959575840e-03  5.9778621521037467e-03  4.2614408128855323e-03  2.8010686885398795e-03  1.6739071121717308e-03  8.9169010976943724e-04  4.1942713521202142e-04  1.8520603488799268e-04  9.8333402764312728e-05  7.8786610044755272e-05  9.1702714460197165e-05  1.7617345468294514e-04  4.6371865357379362e-04  1.2241203497260133e-03  3.1661886898355879e-03  9.3463611632861737e-03  3.7177733474097377e-02  1.7948682735837213e-01  5.9514222614786239e-01  8.8675565171094262e-01  9.6433421601644798e-01  9.8655378991048426e-01  9.9450755642344213e-01  9.9740645162600516e-01  9.9803063764369893e-01  9.9799521207138209e-01  1.6576428984377851e-02  1.5536545760249645e-02  1.2747635559776151e-02  9.0846522980299448e-03  5.5715922271504480e-03  2.9286017850754190e-03  1.4269864231535433e-03  1.0503083490279487e-03  1.6770957008033661e-03  3.1173894116906407e-03  5.0706807266282091e-03  7.1219000293972386e-03  8.7999736378585602e-03  9.6973096523131543e-03  9.6302927005098692e-03  8.7155183342769241e-03  7.2691196765406665e-03  5.6311174284312242e-03  4.0615268902292360e-03  2.7247356336620875e-03  1.7024205327008800e-03  1.0042207613952219e-03  5.8372066622261270e-04  3.6734669348794752e-04  2.8765962156923489e-04  3.0741492078990260e-04  4.2726673592485679e-04  6.7786983635483977e-04  1.1018415788663961e-03  1.7320549801777324e-03  2.5699265094395185e-03  3.5624415991360459e-03  4.5770198126008407e-03  5.3905917997445771e-03  5.7358120109628043e-03  5.4289678709380333e-03  4.5057705135366031e-03  3.2312383890317820e-03  1.9642609097490862e-03  9.9175853963750040e-04  4.1913139334896819e-04  1.6922993411879961e-04  1.1492167429859612e-04  1.8943538155405498e-04  3.6406597862668078e-04  5.9408468131010570e-04  8.0906694731177600e-04  9.3672621005317421e-04  9.3360614950394657e-04  8.0383674026132678e-04  5.9500052666252364e-04  3.7513697872923582e-04  2.0673484712555897e-04  1.2970301704907664e-04  1.5478654121322004e-04  2.6382717062108069e-04  4.1388107271431358e-04  5.4460671798770650e-04  5.9114036226141182e-04  5.1138031260871525e-04  3.4534345923213606e-04  2.1568684853820236e-04  1.4570641744291433e-04  9.7817563124400573e-05  7.9795771735905409e-05  8.9971325540288421e-05  1.4254315535554198e-04  3.6704259270556658e-04  1.1558496778420048e-03  2.7365721985616936e-03  4.6855653833876368e-03  6.5586158738261307e-03  7.9110184325589181e-03  8.3689342971136546e-03  7.8836878546710461e-03  6.7362532937682365e-03  5.3088807861600045e-03  3.8955121072335500e-03  2.6621476035857505e-03  1.6839749798819692e-03  9.8070609726700697e-04  5.3218027937080345e-04  2.8719049009869122e-04  1.7810636050022340e-04  1.4424325043088529e-04  1.5957945803748985e-04  2.5706193113524990e-04  5.4645331537459354e-04  1.2520096632798623e-03  2.9192916831874320e-03  7.5855344235410144e-03  2.5107118571613778e-02  1.0115442553035223e-01  3.7081777522852449e-01  7.5183670735367381e-01  9.1512391535894066e-01  9.6375996298478583e-01  9.8137406841391939e-01  9.8835283420760667e-01  9.9082337520146113e-01  9.9134512596907465e-01  1.2360834771026435e-02  1.1718757406589158e-02  9.9234371828640540e-03  7.4117648284525873e-03  4.8255232333161866e-03  2.7184676446937988e-03  1.3791365514334315e-03  8.7495637885676993e-04  1.1636437025777250e-03  2.1346259853213616e-03  3.5853555586015384e-03  5.2072984537542581e-03  6.6283952578386702e-03  7.5142773310275159e-03  7.6899823945400072e-03  7.1977219288069114e-03  6.2390469972455828e-03  5.0593762936107217e-03  3.8661508726923906e-03  2.8033726851176242e-03  1.9528673686536981e-03  1.3404179076137925e-03  9.4713980625083525e-04  7.2968858124885020e-04  6.4412384862035229e-04  6.6399913051273579e-04  7.8673826525484016e-04  1.0280784285084952e-03  1.4083695274604898e-03  1.9357978269101742e-03  2.5901873435426157e-03  3.3085692985097654e-03  3.9750539854581683e-03  4.4272918367663306e-03  4.5005767328504861e-03  4.1102386374461519e-03  3.3206489084266128e-03  2.3337015865817611e-03  1.3975771614216290e-03  6.9992697834553178e-04  3.0013975440805382e-04  1.4098176608538240e-04  1.3739073329716009e-04  2.3853167707992335e-04  4.1012017598286964e-04  6.0383275729176250e-04  7.5816102476273075e-04  8.2041685956711012e-04  7.6951510577059283e-04  6.2497022196444582e-04  4.3656360548978364e-04  2.6221878052308544e-04  1.4773803743985315e-04  1.1594893312026715e-04  1.6458577834595873e-04  2.6956521605818034e-04  3.9146060203734998e-04  4.8478624626967573e-04  5.1117944198103939e-04  4.5699579556113137e-04  3.4748957052817156e-04  2.3356776967860512e-04  1.5247086151745379e-04  1.2315246492549807e-04  1.5937346714236042e-04  2.6200031716282207e-04  4.5445608918811393e-04  8.5069160291229603e-04  1.5898797825905906e-03  2.6635851461558960e-03  3.9248246162574638e-03  5.1424785055209348e-03  6.0247924668650216e-03  6.3400395718127417e-03  6.0497200722539812e-03  5.3082974574781491e-03  4.3441960378329484e-03  3.3504612088644070e-03  2.4497680255517670e-03  1.7066492480193719e-03  1.1459106510351594e-03  7.6301342415067465e-04  5.3088372354974823e-04  4.1012118901501528e-04  3.6489356772943159e-04  3.8211684879430849e-04  4.8936476317544249e-04  7.6988947694554973e-04  1.3892408581014579e-03  2.7084318668427684e-03  5.8226060947133467e-03  1.4966881417768751e-02  4.6516876557936432e-02  1.5356802219239718e-01  4.2520191836511445e-01  7.2571169485677123e-01  8.7241495460036667e-01  9.3006357415467300e-01  9.5446155867484639e-01  9.6482994682560852e-01  9.6772317806708619e-01  8.1650374818506011e-03  7.8538507402781607e-03  6.9200697399922845e-03  5.4827909640422778e-03  3.8517044906413705e-03  2.3806535861416117e-03  1.3168525043156648e-03  7.7438749708784145e-04  7.7631330544543527e-04  1.2829400979582754e-03  2.1857557999190287e-03  3.2970185618049234e-03  4.3711459053354723e-03  5.1686734431873231e-03  5.5366712433558658e-03  5.4543687753089085e-03  5.0133533943177598e-03  4.3565783758083131e-03  3.6238016642808294e-03  2.9246032931995423e-03  2.3308909600920054e-03  1.8774339100121637e-03  1.5676920474853458e-03  1.3853349712832197e-03  1.3085254567400076e-03  1.3214405020546532e-03  1.4188270137864827e-03  1.6028269312776996e-03  1.8743469948226403e-03  2.2226290327583866e-03  2.6162671153177586e-03  2.9978973917068490e-03  3.2855009676299317e-03  3.3862388676916366e-03  3.2278598509584903e-03  2.7991388261334729e-03  2.1720537887619795e-03  1.4820799761917514e-03  8.7438111171630529e-04  4.4694928607739043e-04  2.2064014331089787e-04  1.5542203426103244e-04  1.9758064724117154e-04  3.0651571596668919e-04  4.4622134714277119e-04  5.7456063670662568e-04  6.4934024137159674e-04  6.4387793928278681e-04  5.5899043384088291e-04  4.2276859793640266e-04  2.7786702245059873e-04  1.6436521514351179e-04  1.0729348574903040e-04  1.1216874398322804e-04  1.6685670049485472e-04  2.4701617522531128e-04  3.2325832938146702e-04  3.6906510939645291e-04  3.6885787223176782e-04  3.2450267047495421e-04  2.5597332541889555e-04  1.9288555630224614e-04  1.6282301283633110e-04  1.8590603438666743e-04  2.7429026202584764e-04  4.3497398979413198e-04  6.8255447569423242e-04  1.0491050071872055e-03  1.5614084475031580e-03  2.2082843882013370e-03  2.9267969619702332e-03  3.6012808571996503e-03  4.0895830490447092e-03  4.2827666983360447e-03  4.1592715680014202e-03  3.7859759199925049e-03  3.2715859468233003e-03  2.7179772271272323e-03  2.1980989418355318e-03  1.7555543314217957e-03  1.4106737216113558e-03  1.1655216530476777e-03  1.0083989782599400e-03  9.2061618378625224e-04  8.8648528529834409e-04  9.0503852823161453e-04  1.0010763648978273e-03  1.2350180595839878e-03  1.7182750489912291e-03  2.6636835343108152e-03  4.5811477189208133e-03  8.9989598030306619e-03  2.0785066019171863e-02  5.3828639005920456e-02  1.4008717058726741e-01  3.1924290679349859e-01  5.4633627108407379e-01  7.1238762395208710e-01  8.0350636095705008e-01  8.4877749285765514e-01  8.6278574427234656e-01  4.7554083028768929e-03  4.6585894478484340e-03  4.3135351591910894e-03  3.6780299947318648e-03  2.8434840271315690e-03  1.9845467839883198e-03  1.2642442858137523e-03  7.9146102248522834e-04  6.2153714294585179e-04  7.6488870805045879e-04  1.1866425459588113e-03  1.8026518994066149e-03  2.4874021862975140e-03  3.1031285498764770e-03  3.5414763934503808e-03  3.7543417162957393e-03  3.7561268633814746e-03  3.6018454148487220e-03  3.3598659424698939e-03  3.0927331811237782e-03  2.8474693982136548e-03  2.6518785320334718e-03  2.5151020592916453e-03  2.4323264318120998e-03  2.3924215705121853e-03  2.3853268648085469e-03  2.4057312431528389e-03  2.4516047582591408e-03  2.5190164293456756e-03  2.5963845701024984e-03  2.6610363978662702e-03  2.6797464757317615e-03  2.6142710430261118e-03  2.4325783768508326e-03  2.1241729787451419e-03  1.7127306632798384e-03  1.2561727389840485e-03  8.2989033526017272e-04  4.9998734846963110e-04  3.0000671218984888e-04  2.2371250867375792e-04  2.3819102881584349e-04  3.0513325865078202e-04  3.9170302518238030e-04  4.6947272293856765e-04  5.1352863788933485e-04  5.0731185771585112e-04  4.4909780666361766e-04  3.5396255190890891e-04  2.4839312295491471e-04  1.5990833272736251e-04  1.0731455585823315e-04  9.5947445790707471e-05  1.1854250215927422e-04  1.5983594064063867e-04  2.0249002515220049e-04  2.3246911546512914e-04  2.4278299041425951e-04  2.3513581970303617e-04  2.1918597311968886e-04  2.0926053825944378e-04  2.1949546673172185e-04  2.5986779560405019e-04  3.3500969611734415e-04  4.4558977041617512e-04  5.9147722657625773e-04  7.7537947175414386e-04  1.0032430007239493e-03  1.2787948725582778e-03  1.5947647029065431e-03  1.9258278117388575e-03  2.2284390093810463e-03  2.4520549557505017e-03  2.5596628978331688e-03  2.5449511140760469e-03  2.4334389931935352e-03  2.2685318752160939e-03  2.0945353559259335e-03  1.9459780159175862e-03  1.8437754436460062e-03  1.7945910335272744e-03  1.7914722710942557e-03  1.8169193981832420e-03  1.8500260415187726e-03  1.8766817171726367e-03  1.8991342632134196e-03  1.9418572153842184e-03  2.0542702618284951e-03  2.3149299474042096e-03  2.8478963583710229e-03  3.8802337547474311e-03  5.9222894579391110e-03  1.0254939360854122e-02  1.9989034537327997e-02  4.1546260029586057e-02  8.5349580367732977e-02  1.6222661190624812e-01  2.6570371908453200e-01  3.7389083635545922e-01  4.5912273242214646e-01  4.9189180894893436e-01  2.4199845366781069e-03  2.4265432447994084e-03  2.3926574603453459e-03  2.2400700655069885e-03  1.9594699426051195e-03  1.6029646482184443e-03  1.2411705068112434e-03  9.3716846739728011e-04  7.3816120101390039e-04  6.7368043550375802e-04  7.5354623028538311e-04  9.6530475248769157e-04  1.2750905318591034e-03  1.6355598296196514e-03  1.9998099239153543e-03  2.3347395744812917e-03  2.6267476346084387e-03  2.8782820710004215e-03  3.0998585423771164e-03  3.3028614592244534e-03  3.4945540441783324e-03  3.6739519787797495e-03  3.8288264057082318e-03  3.9370501993712878e-03  3.9744947028360804e-03  3.9261753143844261e-03  3.7930702836421011e-03  3.5897502045059847e-03  3.3355153904416159e-03  3.0460235826956553e-03  2.7299877212908063e-03  2.3908883757816769e-03  2.0314729571300201e-03  1.6589768789468089e-03  1.2891682496310492e-03  9.4691340806195810e-04  6.6156007461137519e-04  4.5796510310905879e-04  3.4689114983610603e-04  3.1968690437804908e-04  3.5081304339093744e-04  4.0739104964028527e-04  4.5980248241290036e-04  4.8755101573339768e-04  4.8026919083008981e-04  4.3704675806765093e-04  3.6558207575633939e-04  2.8038339017402958e-04  1.9907035881875046e-04  1.3719903970508708e-04  1.0344764234735754e-04  9.7246275406249994e-05  1.0996451978147293e-04  1.2927101500833822e-04  1.4477523500365991e-04  1.5236753606493654e-04  1.5551429630477554e-04  1.6343128368938236e-04  1.8720333543143918e-04  2.3524809683850707e-04  3.0959707691364754e-04  4.0447166099085563e-04  5.0805573675555867e-04  6.0695970775474133e-04  6.9144812692977496e-04  7.5911829191029881e-04  8.1545223218325953e-04  8.7098149594770668e-04  9.3619020123471774e-04  1.0162124004724131e-03  1.1076053711083231e-03  1.1990722244689649e-03  1.2767072014449037e-03  1.3318747589480043e-03  1.3675816264038690e-03  1.3996776307655288e-03  1.4526514977611605e-03  1.5529314348137757e-03  1.7224964756517110e-03  1.9729765117642208e-03  2.2988527698856159e-03  2.6709102066877579e-03  3.0361762838504594e-03  3.3309938676329533e-03  3.5047885588454092e-03  3.5414364587237658e-03  3.4664013583943320e-03  3.3400268413512138e-03  3.2462523339296316e-03  3.2860582521478596e-03  3.5844384239611840e-03  4.3257759423121767e-03  5.8431902948007956e-03  8.7820457682024761e-03  1.4300758570582018e-02  2.4121676249513498e-02  3.9994535363579178e-02  6.3081292435109806e-02  9.2245281554915654e-02  1.1997575574050647e-01  1.3199372701324774e-01  1.1104354624186877e-03  1.1367919185402209e-03  1.1952368640934245e-03  1.2503201385572703e-03  1.2816047092623958e-03  1.2828892148742802e-03  1.2527796487072514e-03  1.1918572762868031e-03  1.1050923037668810e-03  1.0044001786201102e-03  9.0849775922099225e-04  8.4084260573517367e-04  8.2726655810020440e-04  8.9311592366326457e-04  1.0595904424944042e-03  1.3406112549956659e-03  1.7410041401500871e-03  2.2548820149095052e-03  2.8641273746825503e-03  3.5389911667926218e-03  4.2401274954796718e-03  4.9169719563204655e-03  5.5021188056778216e-03  5.9132108399479796e-03  6.0742782021367828e-03  5.9489714078223609e-03  5.5593785768050892e-03  4.9736658980020091e-03  4.2750308874409835e-03  3.5368335681458369e-03  2.8145710909873028e-03  2.1485794750540498e-03  1.5683528713525061e-03  1.0947561765517811e-03  7.4047822102765791e-04  5.0950635572877549e-04  3.9581904657339255e-04  3.8188434412090319e-04  4.3853140503476168e-04  5.2806575322683212e-04  6.1129311742529350e-04  6.5659722776785219e-04  6.4724273834210417e-04  5.8375644561441001e-04  4.8101578668514438e-04  3.6193911121139765e-04  2.5020141175323603e-04  1.6397507662609340e-04  1.1217726674730433e-04  9.3924102157951780e-05  1.0049755635731163e-04  1.1836022662470069e-04  1.3311706332262918e-04  1.3519853450910812e-04  1.2531966572521680e-04  1.1575529961883367e-04  1.2615684629807989e-04  1.7611946083143554e-04  2.7733398101075564e-04  4.2744269268416886e-04  6.0768534187342438e-04  7.8629390964907934e-04  9.2771340533494132e-04  1.0044776799892005e-03  1.0065114809938167e-03  9.4375189317939909e-04  8.4145787517140788e-04  7.3082919328595116e-04  6.3889585827599010e-04  5.8116883072250832e-04  5.5919239237501531e-04  5.6360603793063457e-04  5.8173390021782516e-04  6.0703347267354938e-04  6.4653828835377933e-04  7.2297808455047111e-04  8.7107804796614393e-04  1.1308104133166269e-03  1.5405251265563343e-03  2.1283718488256942e-03  2.8960930692143337e-03  3.7947507912745281e-03  4.7087859188526338e-03  5.4741523849563978e-03  5.9359341844262151e-03  6.0136142190900252e-03  5.7310661461327126e-03  5.1982038637233162e-03  4.5663535317214746e-03  3.9863292060054543e-03  3.5851085181067507e-03  3.4655935902314040e-03  3.7281233297360925e-03  4.5071539329439320e-03  6.0087152031906730e-03  8.5201430485720795e-03  1.2379810566961030e-02  1.7840844995224647e-02  2.4596230490361748e-02  3.0895336852240111e-02  3.3595640417495395e-02  6.4847778086376542e-04  6.3770555052457083e-04  6.3435163186598674e-04  6.8971150344077916e-04  8.2975180076801580e-04  1.0430509369156449e-03  1.2882777994710885e-03  1.5080243673218567e-03  1.6469292888392161e-03  1.6680965283964843e-03  1.5617147383037353e-03  1.3482549750207112e-03  1.0806483679565786e-03  8.4043571513263556e-04  7.2101221177406014e-04  8.0467328507371539e-04  1.1469540507810915e-03  1.7705902004394704e-03  2.6629677092641908e-03  3.7765285664108639e-03  5.0328470866170495e-03  6.32028354236