<?xml version="1.0"?>
<VTKFile type="UnstructuredGrid"  version="0.1"  >
<UnstructuredGrid>
<Piece  NumberOfPoints="20201" NumberOfCells="40000">
<Points>
<DataArray  type="Float64"  NumberOfComponents="3"  format="ascii">0 0 0  2 0 0  4 0 0  6 0 0  8 0 0  10 0 0  12 0 0  14 0 0  16 0 0  18 0 0  20 0 0  22 0 0  24 0 0  26 0 0  28 0 0  30 0 0  32 0 0  34 0 0  36 0 0  38 0 0  40 0 0  42 0 0  44 0 0  46 0 0  48 0 0  50 0 0  52 0 0  54 0 0  56 0 0  58 0 0  60 0 0  62 0 0  64 0 0  66 0 0  68 0 0  70 0 0  72 0 0  74 0 0  76 0 0  78 0 0  80 0 0  82 0 0  84 0 0  86 0 0  88 0 0  90 0 0  92 0 0  94 0 0  96 0 0  98 0 0  100 0 0  102 0 0  104 0 0  106 0 0  108 0 0  110 0 0  112 0 0  114 0 0  116 0 0  118 0 0  120 0 0  122 0 0  124 0 0  126 0 0  128 0 0  130 0 0  132 0 0  134 0 0  136 0 0  138 0 0  140 0 0  142 0 0  144 0 0  146 0 0  148 0 0  150 0 0  152 0 0  154 0 0  156 0 0  158 0 0  160 0 0  162 0 0  164 0 0  166 0 0  168 0 0  170 0 0  172 0 0  174 0 0  176 0 0  178 0 0  180 0 0  182 0 0  184 0 0  186 0 0  188 0 0  190 0 0  192 0 0  194 0 0  196 0 0  198 0 0  200 0 0  0 2 0  2 2 0  4 2 0  6 2 0  8 2 0  10 2 0  12 2 0  14 2 0  16 2 0  18 2 0  20 2 0  22 2 0  24 2 0  26 2 0  28 2 0  30 2 0  32 2 0  34 2 0  36 2 0  38 2 0  40 2 0  42 2 0  44 2 0  46 2 0  48 2 0  50 2 0  52 2 0  54 2 0  56 2 0  58 2 0  60 2 0  62 2 0  64 2 0  66 2 0  68 2 0  70 2 0  72 2 0  74 2 0  76 2 0  78 2 0  80 2 0  82 2 0  84 2 0  86 2 0  88 2 0  90 2 0  92 2 0  94 2 0  96 2 0  98 2 0  100 2 0  102 2 0  104 2 0  106 2 0  108 2 0  110 2 0  112 2 0  114 2 0  116 2 0  118 2 0  120 2 0  122 2 0  124 2 0  126 2 0  128 2 0  130 2 0  132 2 0  134 2 0  136 2 0  138 2 0  140 2 0  142 2 0  144 2 0  146 2 0  148 2 0  150 2 0  152 2 0  154 2 0  156 2 0  158 2 0  160 2 0  162 2 0  164 2 0  166 2 0  168 2 0  170 2 0  172 2 0  174 2 0  176 2 0  178 2 0  180 2 0  182 2 0  184 2 0  186 2 0  188 2 0  190 2 0  192 2 0  194 2 0  196 2 0  198 2 0  200 2 0  0 4 0  2 4 0  4 4 0  6 4 0  8 4 0  10 4 0  12 4 0  14 4 0  16 4 0  18 4 0  20 4 0  22 4 0  24 4 0  26 4 0  28 4 0  30 4 0  32 4 0  34 4 0  36 4 0  38 4 0  40 4 0  42 4 0  44 4 0  46 4 0  48 4 0  50 4 0  52 4 0  54 4 0  56 4 0  58 4 0  60 4 0  62 4 0  64 4 0  66 4 0  68 4 0  70 4 0  72 4 0  74 4 0  76 4 0  78 4 0  80 4 0  82 4 0  84 4 0  86 4 0  88 4 0  90 4 0  92 4 0  94 4 0  96 4 0  98 4 0  100 4 0  102 4 0  104 4 0  106 4 0  108 4 0  110 4 0  112 4 0  114 4 0  116 4 0  118 4 0  120 4 0  122 4 0  124 4 0  126 4 0  128 4 0  130 4 0  132 4 0  134 4 0  136 4 0  138 4 0  140 4 0  142 4 0  144 4 0  146 4 0  148 4 0  150 4 0  152 4 0  154 4 0  156 4 0  158 4 0  160 4 0  162 4 0  164 4 0  166 4 0  168 4 0  170 4 0  172 4 0  174 4 0  176 4 0  178 4 0  180 4 0  182 4 0  184 4 0  186 4 0  188 4 0  190 4 0  192 4 0  194 4 0  196 4 0  198 4 0  200 4 0  0 6 0  2 6 0  4 6 0  6 6 0  8 6 0  10 6 0  12 6 0  14 6 0  16 6 0  18 6 0  20 6 0  22 6 0  24 6 0  26 6 0  28 6 0  30 6 0  32 6 0  34 6 0  36 6 0  38 6 0  40 6 0  42 6 0  44 6 0  46 6 0  48 6 0  50 6 0  52 6 0  54 6 0  56 6 0  58 6 0  60 6 0  62 6 0  64 6 0  66 6 0  68 6 0  70 6 0  72 6 0  74 6 0  76 6 0  78 6 0  80 6 0  82 6 0  84 6 0  86 6 0  88 6 0  90 6 0  92 6 0  94 6 0  96 6 0  98 6 0  100 6 0  102 6 0  104 6 0  106 6 0  108 6 0  110 6 0  112 6 0  114 6 0  116 6 0  118 6 0  120 6 0  122 6 0  124 6 0  126 6 0  128 6 0  130 6 0  132 6 0  134 6 0  136 6 0  138 6 0  140 6 0  142 6 0  144 6 0  146 6 0  148 6 0  150 6 0  152 6 0  154 6 0  156 6 0  158 6 0  160 6 0  162 6 0  164 6 0  166 6 0  168 6 0  170 6 0  172 6 0  174 6 0  176 6 0  178 6 0  180 6 0  182 6 0  184 6 0  186 6 0  188 6 0  190 6 0  192 6 0  194 6 0  196 6 0  198 6 0  200 6 0  0 8 0  2 8 0  4 8 0  6 8 0  8 8 0  10 8 0  12 8 0  14 8 0  16 8 0  18 8 0  20 8 0  22 8 0  24 8 0  26 8 0  28 8 0  30 8 0  32 8 0  34 8 0  36 8 0  38 8 0  40 8 0  42 8 0  44 8 0  46 8 0  48 8 0  50 8 0  52 8 0  54 8 0  56 8 0  58 8 0  60 8 0  62 8 0  64 8 0  66 8 0  68 8 0  70 8 0  72 8 0  74 8 0  76 8 0  78 8 0  80 8 0  82 8 0  84 8 0  86 8 0  88 8 0  90 8 0  92 8 0  94 8 0  96 8 0  98 8 0  100 8 0  102 8 0  104 8 0  106 8 0  108 8 0  110 8 0  112 8 0  114 8 0  116 8 0  118 8 0  120 8 0  122 8 0  124 8 0  126 8 0  128 8 0  130 8 0  132 8 0  134 8 0  136 8 0  138 8 0  140 8 0  142 8 0  144 8 0  146 8 0  148 8 0  150 8 0  152 8 0  154 8 0  156 8 0  158 8 0  160 8 0  162 8 0  164 8 0  166 8 0  168 8 0  170 8 0  172 8 0  174 8 0  176 8 0  178 8 0  180 8 0  182 8 0  184 8 0  186 8 0  188 8 0  190 8 0  192 8 0  194 8 0  196 8 0  198 8 0  200 8 0  0 10 0  2 10 0  4 10 0  6 10 0  8 10 0  10 10 0  12 10 0  14 10 0  16 10 0  18 10 0  20 10 0  22 10 0  24 10 0  26 10 0  28 10 0  30 10 0  32 10 0  34 10 0  36 10 0  38 10 0  40 10 0  42 10 0  44 10 0  46 10 0  48 10 0  50 10 0  52 10 0  54 10 0  56 10 0  58 10 0  60 10 0  62 10 0  64 10 0  66 10 0  68 10 0  70 10 0  72 10 0  74 10 0  76 10 0  78 10 0  80 10 0  82 10 0  84 10 0  86 10 0  88 10 0  90 10 0  92 10 0  94 10 0  96 10 0  98 10 0  100 10 0  102 10 0  104 10 0  106 10 0  108 10 0  110 10 0  112 10 0  114 10 0  116 10 0  118 10 0  120 10 0  122 10 0  124 10 0  126 10 0  128 10 0  130 10 0  132 10 0  134 10 0  136 10 0  138 10 0  140 10 0  142 10 0  144 10 0  146 10 0  148 10 0  150 10 0  152 10 0  154 10 0  156 10 0  158 10 0  160 10 0  162 10 0  164 10 0  166 10 0  168 10 0  170 10 0  172 10 0  174 10 0  176 10 0  178 10 0  180 10 0  182 10 0  184 10 0  186 10 0  188 10 0  190 10 0  192 10 0  194 10 0  196 10 0  198 10 0  200 10 0  0 12 0  2 12 0  4 12 0  6 12 0  8 12 0  10 12 0  12 12 0  14 12 0  16 12 0  18 12 0  20 12 0  22 12 0  24 12 0  26 12 0  28 12 0  30 12 0  32 12 0  34 12 0  36 12 0  38 12 0  40 12 0  42 12 0  44 12 0  46 12 0  48 12 0  50 12 0  52 12 0  54 12 0  56 12 0  58 12 0  60 12 0  62 12 0  64 12 0  66 12 0  68 12 0  70 12 0  72 12 0  74 12 0  76 12 0  78 12 0  80 12 0  82 12 0  84 12 0  86 12 0  88 12 0  90 12 0  92 12 0  94 12 0  96 12 0  98 12 0  100 12 0  102 12 0  104 12 0  106 12 0  108 12 0  110 12 0  112 12 0  114 12 0  116 12 0  118 12 0  120 12 0  122 12 0  124 12 0  126 12 0  128 12 0  130 12 0  132 12 0  134 12 0  136 12 0  138 12 0  140 12 0  142 12 0  144 12 0  146 12 0  148 12 0  150 12 0  152 12 0  154 12 0  156 12 0  158 12 0  160 12 0  162 12 0  164 12 0  166 12 0  168 12 0  170 12 0  172 12 0  174 12 0  176 12 0  178 12 0  180 12 0  182 12 0  184 12 0  186 12 0  188 12 0  190 12 0  192 12 0  194 12 0  196 12 0  198 12 0  200 12 0  0 14 0  2 14 0  4 14 0  6 14 0  8 14 0  10 14 0  12 14 0  14 14 0  16 14 0  18 14 0  20 14 0  22 14 0  24 14 0  26 14 0  28 14 0  30 14 0  32 14 0  34 14 0  36 14 0  38 14 0  40 14 0  42 14 0  44 14 0  46 14 0  48 14 0  50 14 0  52 14 0  54 14 0  56 14 0  58 14 0  60 14 0  62 14 0  64 14 0  66 14 0  68 14 0  70 14 0  72 14 0  74 14 0  76 14 0  78 14 0  80 14 0  82 14 0  84 14 0  86 14 0  88 14 0  90 14 0  92 14 0  94 14 0  96 14 0  98 14 0  100 14 0  102 14 0  104 14 0  106 14 0  108 14 0  110 14 0  112 14 0  114 14 0  116 14 0  118 14 0  120 14 0  122 14 0  124 14 0  126 14 0  128 14 0  130 14 0  132 14 0  134 14 0  136 14 0  138 14 0  140 14 0  142 14 0  144 14 0  146 14 0  148 14 0  150 14 0  152 14 0  154 14 0  156 14 0  158 14 0  160 14 0  162 14 0  164 14 0  166 14 0  168 14 0  170 14 0  172 14 0  174 14 0  176 14 0  178 14 0  180 14 0  182 14 0  184 14 0  186 14 0  188 14 0  190 14 0  192 14 0  194 14 0  196 14 0  198 14 0  200 14 0  0 16 0  2 16 0  4 16 0  6 16 0  8 16 0  10 16 0  12 16 0  14 16 0  16 16 0  18 16 0  20 16 0  22 16 0  24 16 0  26 16 0  28 16 0  30 16 0  32 16 0  34 16 0  36 16 0  38 16 0  40 16 0  42 16 0  44 16 0  46 16 0  48 16 0  50 16 0  52 16 0  54 16 0  56 16 0  58 16 0  60 16 0  62 16 0  64 16 0  66 16 0  68 16 0  70 16 0  72 16 0  74 16 0  76 16 0  78 16 0  80 16 0  82 16 0  84 16 0  86 16 0  88 16 0  90 16 0  92 16 0  94 16 0  96 16 0  98 16 0  100 16 0  102 16 0  104 16 0  106 16 0  108 16 0  110 16 0  112 16 0  114 16 0  116 16 0  118 16 0  120 16 0  122 16 0  124 16 0  126 16 0  128 16 0  130 16 0  132 16 0  134 16 0  136 16 0  138 16 0  140 16 0  142 16 0  144 16 0  146 16 0  148 16 0  150 16 0  152 16 0  154 16 0  156 16 0  158 16 0  160 16 0  162 16 0  164 16 0  166 16 0  168 16 0  170 16 0  172 16 0  174 16 0  176 16 0  178 16 0  180 16 0  182 16 0  184 16 0  186 16 0  188 16 0  190 16 0  192 16 0  194 16 0  196 16 0  198 16 0  200 16 0  0 18 0  2 18 0  4 18 0  6 18 0  8 18 0  10 18 0  12 18 0  14 18 0  16 18 0  18 18 0  20 18 0  22 18 0  24 18 0  26 18 0  28 18 0  30 18 0  32 18 0  34 18 0  36 18 0  38 18 0  40 18 0  42 18 0  44 18 0  46 18 0  48 18 0  50 18 0  52 18 0  54 18 0  56 18 0  58 18 0  60 18 0  62 18 0  64 18 0  66 18 0  68 18 0  70 18 0  72 18 0  74 18 0  76 18 0  78 18 0  80 18 0  82 18 0  84 18 0  86 18 0  88 18 0  90 18 0  92 18 0  94 18 0  96 18 0  98 18 0  100 18 0  102 18 0  104 18 0  106 18 0  108 18 0  110 18 0  112 18 0  114 18 0  116 18 0  118 18 0  120 18 0  122 18 0  124 18 0  126 18 0  128 18 0  130 18 0  132 18 0  134 18 0  136 18 0  138 18 0  140 18 0  142 18 0  144 18 0  146 18 0  148 18 0  150 18 0  152 18 0  154 18 0  156 18 0  158 18 0  160 18 0  162 18 0  164 18 0  166 18 0  168 18 0  170 18 0  172 18 0  174 18 0  176 18 0  178 18 0  180 18 0  182 18 0  184 18 0  186 18 0  188 18 0  190 18 0  192 18 0  194 18 0  196 18 0  198 18 0  200 18 0  0 20 0  2 20 0  4 20 0  6 20 0  8 20 0  10 20 0  12 20 0  14 20 0  16 20 0  18 20 0  20 20 0  22 20 0  24 20 0  26 20 0  28 20 0  30 20 0  32 20 0  34 20 0  36 20 0  38 20 0  40 20 0  42 20 0  44 20 0  46 20 0  48 20 0  50 20 0  52 20 0  54 20 0  56 20 0  58 20 0  60 20 0  62 20 0  64 20 0  66 20 0  68 20 0  70 20 0  72 20 0  74 20 0  76 20 0  78 20 0  80 20 0  82 20 0  84 20 0  86 20 0  88 20 0  90 20 0  92 20 0  94 20 0  96 20 0  98 20 0  100 20 0  102 20 0  104 20 0  106 20 0  108 20 0  110 20 0  112 20 0  114 20 0  116 20 0  118 20 0  120 20 0  122 20 0  124 20 0  126 20 0  128 20 0  130 20 0  132 20 0  134 20 0  136 20 0  138 20 0  140 20 0  142 20 0  144 20 0  146 20 0  148 20 0  150 20 0  152 20 0  154 20 0  156 20 0
[...]
<PointData  Scalars="f_271-3"> 
<DataArray  type="Float64"  Name="f_271-3"  format="ascii">3.7406470512580330e-02  3.4662007773198313e-02  2.7497995394462370e-02  1.8524643120761151e-02  1.0462655358952718e-02  4.9091731220403147e-03  2.1879962711770641e-03  2.0194607123076385e-03  4.0186859464323588e-03  7.6639915247298683e-03  1.2188037617067719e-02  1.6677716725214904e-02  2.0160620310226723e-02  2.1747410607550734e-02  2.1054434367073563e-02  1.8472755954974805e-02  1.4858019792160820e-02  1.1022342982492673e-02  7.5151036016892310e-03  4.6530115537131546e-03  2.5734971457495020e-03  1.2512311718261703e-03  5.3220374384493397e-04  2.0922010820947651e-04  1.0595764903285588e-04  1.3256013834587468e-04  3.0005944976274623e-04  6.9905271769124544e-04  1.4571836480325453e-03  2.6915806148251186e-03  4.4642112890991154e-03  6.7309693319757532e-03  9.2636555482429467e-03  1.1562820430698877e-02  1.2895376299859982e-02  1.2626002081000632e-02  1.0696030346577255e-02  7.7437989762138481e-03  4.7096199891382817e-03  2.3584689037968042e-03  9.8811731575571818e-04  3.8164827750201432e-04  1.7816136791869850e-04  2.2370101219882328e-04  4.9988625545886625e-04  9.5265441442075199e-04  1.4488215182568193e-03  1.8222762597257195e-03  1.9436503845127484e-03  1.7765291076646647e-03  1.3891377084717966e-03  9.1571851319698419e-04  4.9907317950629291e-04  2.4705410004695994e-04  2.1126091238865243e-04  3.8077557200019664e-04  6.8287307107700796e-04  9.8661189165653060e-04  1.1071023296258975e-03  8.4104097761627280e-04  3.6310589521035437e-04  1.8376409488214036e-04  1.8868106779571826e-04  1.4228556259432784e-04  5.7541895066950621e-05  4.1338809650407336e-05  8.0002441683914456e-05  2.2396287596026975e-04  1.0608940382143576e-03  4.3837822986041936e-03  9.4941411939218588e-03  1.4483693568176524e-02  1.8104261080908880e-02  1.9246446599411212e-02  1.7827832030404108e-02  1.4781656516743163e-02  1.1212797079183155e-02  7.8468368478235538e-03  5.0277485745710924e-03  2.8856714819808253e-03  1.4351524794108663e-03  6.0033485499373456e-04  2.2815934096724068e-04  1.2468260602850048e-04  1.1680000735552745e-04  1.2507147311516644e-04  2.2264258142556571e-04  6.5950234402246488e-04  1.8973719620321717e-03  4.9460063817821495e-03  1.3542656933273816e-02  4.8121402026368991e-02  2.1724922396800986e-01  6.5179821683719974e-01  9.0289845633210819e-01  9.6849259826079415e-01  9.8943026187286542e-01  9.9793490186694367e-01  1.0007690969618916e+00  1.0005615363691709e+00  9.9996150436386477e-01  3.5334757001660749e-02  3.2852344088464679e-02  2.6303925056540063e-02  1.7967533387063431e-02  1.0333391684933857e-02  4.9512110449733623e-03  2.2054265132410589e-03  1.8830949742104554e-03  3.6470702194446444e-03  7.0325835314754412e-03  1.1330911575221982e-02  1.5656654184327313e-02  1.9054571669443410e-02  2.0669024290723925e-02  2.0128847533017649e-02  1.7781161850262885e-02  1.4413280328967243e-02  1.0790473979168934e-02  7.4437926353017733e-03  4.6865157849672245e-03  2.6603417027380532e-03  1.3516159363470171e-03  6.2333381580410168e-04  2.8529717395882695e-04  1.7336076274106991e-04  2.0282573822740570e-04  3.8288149398037782e-04  7.9665355160267394e-04  1.5604647842343553e-03  2.7776218543620820e-03  4.4946677304441374e-03  6.6527090936156540e-03  9.0174919842716406e-03  1.1109394381920766e-02  1.2254685564883336e-02  1.1895466906327264e-02  1.0010191261349865e-02  7.2036907646455140e-03  4.3480087311474399e-03  2.1513647387421549e-03  8.8370866584772069e-04  3.3469691467158738e-04  1.6850894857503411e-04  2.4520380719680266e-04  5.4330073962403414e-04  1.0005228656642410e-03  1.4802904199400740e-03  1.8209742715778647e-03  1.9044541421041020e-03  1.7079028937072034e-03  1.3092352148579304e-03  8.4471861811961349e-04  4.5228629615901413e-04  2.3121916700716473e-04  2.2389740187696863e-04  4.1181890668592712e-04  7.1846298906699975e-04  1.0161799608877850e-03  1.1393979714260643e-03  9.3065911386925129e-04  5.0239443060594118e-04  2.8016509558502842e-04  2.3114183875911490e-04  1.5223581427988348e-04  7.5855223633060879e-05  6.6277315263283160e-05  1.2006116031335400e-04  3.3759021644222761e-04  1.4212279292844497e-03  4.6925737982034151e-03  9.3001209645025128e-03  1.3833412245916665e-02  1.7135647946213150e-02  1.8186627618967281e-02  1.6900376526181475e-02  1.4100312807307646e-02  1.0783147331443156e-02  7.6226728503089956e-03  4.9508085367020943e-03  2.8997200883548887e-03  1.4907003048540794e-03  6.5929353829019619e-04  2.6846305487548050e-04  1.4203589253587932e-04  1.2147640020487471e-04  1.3317961572326158e-04  2.4397228905557840e-04  6.8692779276318500e-04  1.8975166325893044e-03  4.8109852306863861e-03  1.2705363072738991e-02  4.2284643101272529e-02  1.7907718550262894e-01  5.7494934926970220e-01  8.7184521907649393e-01  9.5675138393443093e-01  9.8333480033719367e-01  9.9386059074642497e-01  9.9765692773874526e-01  9.9796100189801418e-01  9.9753556785166897e-01  2.9681768049236810e-02  2.7841994647678794e-02  2.2838845040117690e-02  1.6174215531121826e-02  9.7477594999814988e-03  4.9340490461490692e-03  2.2297313471527315e-03  1.5827556346255714e-03  2.7752758577005588e-03  5.4748601668475616e-03  9.1265805815643666e-03  1.2954947633281909e-02  1.6084017619820423e-02  1.7747170198131219e-02  1.7595962891516638e-02  1.5863430287612123e-02  1.3161055265643484e-02  1.0126799230778222e-02  7.2356405476141977e-03  4.7859734977509592e-03  2.9272928770625694e-03  1.6746016707944592e-03  9.3507584466457770e-04  5.6427128755562404e-04  4.3172516196592119e-04  4.6728747289690077e-04  6.7497275537940868e-04  1.1167033235025521e-03  1.8769796035310255e-03  3.0215491875761669e-03  4.5578975265999772e-03  6.3946824099347099e-03  8.2940805263921787e-03  9.8421607550895247e-03  1.0523792866720323e-02  9.9695326104679970e-03  8.2370796306569932e-03  5.8385014884408774e-03  3.4679707752434718e-03  1.6793321918070992e-03  6.6674829434333128e-04  2.4910498604729914e-04  1.6490897438867409e-04  3.0593989221683608e-04  6.3850911304210410e-04  1.0825904073596298e-03  1.5005034787884356e-03  1.7493982946603164e-03  1.7432139094719957e-03  1.4908254303378683e-03  1.0870398331707996e-03  6.6489709045337506e-04  3.4423353669884129e-04  2.0030985600947264e-04  2.5288047147424352e-04  4.6743335231589158e-04  7.6293951570300907e-04  1.0253979638345004e-03  1.1329435348842389e-03  1.0077722547158221e-03  7.1259819749307782e-04  4.5075379317186014e-04  2.8241123299264519e-04  1.6744104381534596e-04  1.4080547277171878e-04  2.0322716176719095e-04  3.6935362643110106e-04  8.8427901720391664e-04  2.3582362598686449e-03  5.0933872008378034e-03  8.5480925015438483e-03  1.1987003813789979e-02  1.4500561777713182e-02  1.5325555165117520e-02  1.4376195281339059e-02  1.2215681782027170e-02  9.5713438843674711e-03  6.9760827245473889e-03  4.7208302937128991e-03  2.9375381792868202e-03  1.6627961563776251e-03  8.6058454968402048e-04  4.3474529006146551e-04  2.5529100007855987e-04  2.0273060056475895e-04  2.2133834429592363e-04  3.6535213286376073e-04  8.2631295439279922e-04  1.9691167557305375e-03  4.5393432795738523e-03  1.0792293843457579e-02  3.0335946212516368e-02  1.0574624679053718e-01  3.6242991629212989e-01  7.3500505623911194e-01  9.0410375377199248e-01  9.5723832743915838e-01  9.7753751952431134e-01  9.8568247806367759e-01  9.8811483104847320e-01  9.8837540978865457e-01  2.2039340920627374e-02  2.0937048523312643e-02  1.7775279997319409e-02  1.3244701993872756e-02  8.5245151770610220e-03  4.6713563302027755e-03  2.2269772376995430e-03  1.3081330522787793e-03  1.8406973924380483e-03  3.6376296925293775e-03  6.3366010137743513e-03  9.3646359637817728e-03  1.2022040291226832e-02  1.3676725127249829e-02  1.3999024599977008e-02  1.3075516416293082e-02  1.1292758679868247e-02  9.1104441477584102e-03  6.9101115331843361e-03  4.9553766885999115e-03  3.3970353618521477e-03  2.2820988299616677e-03  1.5728871606650601e-03  1.1853580535969039e-03  1.0354236552191725e-03  1.0736877505380243e-03  1.2971424389805585e-03  1.7378688307549137e-03  2.4363702262616537e-03  3.4096361142080733e-03  4.6213267853437044e-03  5.9559448441586591e-03  7.1997315045916194e-03  8.0496234799895365e-03  8.1930088211367800e-03  7.4660593280695062e-03  5.9907218341441228e-03  4.1526893832697226e-03  2.4240865352850500e-03  1.1596215759980203e-03  4.6122045393555530e-04  1.9925778741103069e-04  2.0687630885599941e-04  4.0313631941508608e-04  7.3523217118070291e-04  1.1119571309893691e-03  1.4118752784922852e-03  1.5308504208972902e-03  1.4282948067173649e-03  1.1449436414640724e-03  7.8044852672146407e-04  4.4775073602362807e-04  2.3377478606181407e-04  1.8024250147020022e-04  2.8103450424819359e-04  4.8898256448021583e-04  7.2824902076497268e-04  9.1184062353701946e-04  9.6662051960266879e-04  8.6639911375044646e-04  6.5679019137104540e-04  4.3019749857801313e-04  2.5970537235966724e-04  1.9106356474755262e-04  2.6092285264146716e-04  4.7991286115094269e-04  8.8485755977345780e-04  1.6446057585349193e-03  2.9656504617253028e-03  4.8593004464728765e-03  7.1160411341330250e-03  9.3248925030180556e-03  1.0931462230387731e-02  1.1493261786808496e-02  1.0942576321738836e-02  9.5751035155111925e-03  7.8127175260420262e-03  6.0019357476242532e-03  4.3598044400191835e-03  3.0019361518139375e-03  1.9754039097024537e-03  1.2746672841767194e-03  8.5157003900966828e-04  6.3296662875664245e-04  5.4989822683036130e-04  5.7348829086942515e-04  7.4830318976485733e-04  1.2169095092107707e-03  2.2503615946616339e-03  4.3649989883335514e-03  8.8448151763900421e-03  1.9968350520319086e-02  5.3313726953066583e-02  1.5869063747520140e-01  4.1997264041406646e-01  7.1381537269311279e-01  8.6202822306672000e-01  9.2187214715779353e-01  9.4750546217210119e-01  9.5811879977970971e-01  9.6091290281584252e-01  1.4394553341523437e-02  1.3899174040710113e-02  1.2325663218236438e-02  9.7890277306608067e-03  6.8432525961469289e-03  4.1584972128989586e-03  2.2025970697171979e-03  1.1900144140597742e-03  1.1688385729814864e-03  2.0777055433241517e-03  3.7301502884575515e-03  5.7868911248533488e-03  7.7912683010174649e-03  9.2908834524394190e-03  9.9939016422380834e-03  9.8586481348844294e-03  9.0553610761943196e-03  7.8490190900734440e-03  6.4974529575840571e-03  5.2032478922187800e-03  4.1008414418160126e-03  3.2567287080907609e-03  2.6791775924855025e-03  2.3392801047607114e-03  2.1976659457867602e-03  2.2259602391003267e-03  2.4149841402906851e-03  2.7684608421928146e-03  3.2866932902827356e-03  3.9472415147062540e-03  4.6888231961596163e-03  5.4024603899975243e-03  5.9348070597684205e-03  6.1142752796134485e-03  5.8096612377856972e-03  5.0054161498923168e-03  3.8414064515904719e-03  2.5732425328076161e-03  1.4706918072258455e-03  7.1168733518525609e-04  3.2570000088970650e-04  2.2905342686787428e-04  3.2252864514254327e-04  5.3793864296611000e-04  8.1126134599594465e-04  1.0609446135321206e-03  1.2039488390586566e-03  1.1887768528656383e-03  1.0194454067567627e-03  7.5383336669425556e-04  4.7662500309897566e-04  2.6480810967512386e-04  1.6434740927367782e-04  1.8310012603965368e-04  2.9538476297244173e-04  4.5287384010409438e-04  5.9858784930746955e-04  6.8218893954909382e-04  6.7520548798325375e-04  5.8274054939891958e-04  4.4378137392287321e-04  3.1500603277262077e-04  2.4973652054334315e-04  2.8819132305496817e-04  4.5547034135228224e-04  7.6497059978996608e-04  1.2375657751321283e-03  1.9166114062272792e-03  2.8390786882656000e-03  3.9874552107568928e-03  5.2575346698286625e-03  6.4488377658559479e-03  7.3101894056107871e-03  7.6486797481317278e-03  7.4272983868309619e-03  6.7646777932489910e-03  5.8504413916259075e-03  4.8606320267864603e-03  3.9216765754227934e-03  3.1110992913455128e-03  2.4678917637066889e-03  2.0001838318642914e-03  1.6918519435923977e-03  1.5132644080261450e-03  1.4380865838382983e-03  1.4637606845635646e-03  1.6312723283949755e-03  2.0417989690252503e-03  2.8768541768760488e-03  4.4529615491442293e-03  7.4142067096579396e-03  1.3401386978351970e-02  2.7182505860105576e-02  6.1995946877859712e-02  1.4814941233023310e-01  3.2258526692224948e-01  5.4202143055984808e-01  7.0445610685494087e-01  7.9523873033771286e-01  8.4073790695374029e-01  8.5481736885989423e-01  8.2061118701454525e-03  8.0935466191170320e-03  7.5877218418100596e-03  6.5286095718824176e-03  5.0624200090762109e-03  3.5127920174043768e-03  2.1860501133114758e-03  1.2908171714448892e-03  9.3813502069288945e-04  1.1574276166574262e-03  1.8960942629671824e-03  3.0099990879001864e-03  4.2737612302185483e-03  5.4316704644311962e-03  6.2757987068197138e-03  6.7068964615978298e-03  6.7421930272029288e-03  6.4768491289149584e-03  6.0342274591301042e-03  5.5303785486503932e-03  5.0555406687185726e-03  4.6664776584769922e-03  4.3866168687244625e-03  4.2137017083164006e-03  4.1325341323194681e-03  4.1271667430963638e-03  4.1868363725464522e-03  4.3034814370391831e-03  4.4633557360121571e-03  4.6379918080160015e-03  4.7794020346076478e-03  4.8224898042665953e-03  4.6964699205261466e-03  4.3462047255366102e-03  3.7597792184569613e-03  2.9893182695794429e-03  2.1476562404991574e-03  1.3751618533128197e-03  7.9071565134399685e-04  4.5055286548919594e-04  3.3727559786003681e-04  3.8702988407928384e-04  5.2959698208818250e-04  7.0515973030163288e-04  8.5971996983225563e-04  9.4474519633419953e-04  9.2879736132937428e-04  8.1092280927579812e-04  6.2368578441392565e-04  4.2098867391658510e-04  2.5656246049965599e-04  1.6507959106203728e-04  1.5398575896470728e-04  2.0626506221069939e-04  2.9002684412029968e-04  3.7042950270352293e-04  4.2041731853733461e-04  4.2798807009112444e-04  3.9890230194668865e-04  3.5437552363791030e-04  3.2394495373706795e-04  3.3586442293530164e-04  4.0963310500779398e-04  5.5370610507027025e-04  7.6782296813443626e-04  1.0485217406263939e-03  1.3953731672865853e-03  1.8123195781831359e-03  2.3004996698069557e-03  2.8455696998730237e-03  3.4064265715324452e-03  3.9140986538915169e-03  4.2889546447131034e-03  4.4730070848251723e-03  4.4568681518630691e-03  4.2811630376057988e-03  4.0143260923640300e-03  3.7260376402810484e-03  3.4707790446214617e-03  3.2820747288698285e-03  3.1717185699594455e-03  3.1310333762016042e-03  3.1358874455653467e-03  3.1578489467728576e-03  3.1797545650633446e-03  3.2100183589392406e-03  3.2913562336392794e-03  3.5050219851748693e-03  3.9765229462256817e-03  4.8940863688334566e-03  6.5662785461296693e-03  9.5888214399746322e-03  1.5282523316464887e-02  2.6659178731274432e-02  4.9827632532395201e-02  9.4688494876273524e-02  1.7136304607030345e-01  2.7395519286803022e-01  3.8192915204329952e-01  4.6784237877850410e-01  5.0112029212461140e-01  4.0179162071747590e-03  4.0760898827230654e-03  4.1098506271329063e-03  3.9226566635700939e-03  3.4773414993171854e-03  2.8614885749593489e-03  2.2020291038155021e-03  1.6191695845370428e-03  1.2090078610834862e-03  1.0371198318339953e-03  1.1331793074086187e-03  1.4852874534022184e-03  2.0396199161099664e-03  2.7122639592558010e-03  3.4131938443462215e-03  4.0718217236698443e-03  4.6506410312718779e-03  5.1426251683220781e-03  5.5594761826806994e-03  5.9198636633845201e-03  6.2403053238221920e-03  6.5266900221363205e-03  6.7673495842265133e-03  6.9333644110221920e-03  6.9898495887648114e-03  6.9130864200502911e-03  6.7015786735233895e-03  6.3731902463379031e-03  5.9523247745174720e-03  5.4579923643331800e-03  4.8999616946810085e-03  4.2828708304058017e-03  3.6145395103630604e-03  2.9146697208408249e-03  2.2202718414324999e-03  1.5839851158957160e-03  1.0633702402449441e-03  7.0385546533877498e-04  5.2218958015425889e-04  4.9842476192485158e-04  5.8200631775274299e-04  7.0984886700188501e-04  8.2531195308151802e-04  8.8848652217750888e-04  8.7872923613836296e-04  7.9474685571849632e-04  6.5358097908341261e-04  4.8647332874997810e-04  3.3029680239242279e-04  2.1629261741193078e-04  1.6039475977006122e-04  1.5920101373676092e-04  1.9316113098886357e-04  2.3573878517955143e-04  2.6486680780230551e-04  2.7178875697101877e-04  2.6379345345046556e-04  2.6054934015384726e-04  2.8617418892553617e-04  3.5994698373158365e-04  4.8862625728187824e-04  6.6317116276803651e-04  8.6154272382237343e-04  1.0567909246027075e-03  1.2270432407946500e-03  1.3630518379188947e-03  1.4701488528128300e-03  1.5640541483594669e-03  1.6626108351093180e-03  1.7770045854303409e-03  1.9061835593285640e-03  2.0373874215756701e-03  2.1535825706619264e-03  2.2449189259435608e-03  2.3181032719079386e-03  2.3982813991872748e-03  2.5228962099124279e-03  2.7315733629837795e-03  3.0561286986863848e-03  3.5110437447548838e-03  4.0824448440440961e-03  4.7178493754771516e-03  5.3274487994081111e-03  5.8078150740860941e-03  6.0820695576322172e-03  6.1325164809281881e-03  6.0074078764945698e-03  5.8069007234184773e-03  5.6651363224297048e-03  5.7397152825368163e-03  6.2154409818501325e-03  7.3348132246266158e-03  9.4765649280028619e-03  1.3299303818991309e-02  1.9923965304645221e-02  3.0999179678161778e-02  4.8282028157794692e-02  7.3154415689035662e-02  1.0489035667914733e-01  1.3578881326330738e-01  1.4946181993432336e-01  1.7225444849563491e-03  1.7946657458231111e-03  1.9576634445329028e-03  2.1246579736156190e-03  2.2437311499914898e-03  2.2909193813220852e-03  2.2541381032842368e-03  2.1316581212570719e-03  1.9370116177667858e-03  1.7015728741061240e-03  1.4714874846311981e-03  1.3015025489346640e-03  1.2484282451150602e-03  1.3636060677528340e-03  1.6848474126651080e-03  2.2313416784677485e-03  3.0022599791355645e-03  3.9756213403784072e-03  5.1073643595194148e-03  6.3354836779393785e-03  7.5874310662463421e-03  8.7787473011395438e-03  9.8006626264556182e-03  1.0518465275389896e-02  1.0804335272991192e-02  1.0593798046849732e-02  9.9201958903409552e-03  8.8959899199563854e-03  7.6610737515196339e-03  6.3411722821483628e-03  5.0347234142724571e-03  3.8173363479249633e-03  2.7480894731612198e-03  1.8715763326926644e-03  1.2168135514022398e-03  7.9491599553518195e-04  5.9623855210173490e-04  5.8797625076453548e-04  7.1460447692084936e-04  9.0410812941661852e-04  1.0811468671285457e-03  1.1840680638631456e-03  1.1790774376943310e-03  1.0657206145934797e-03  8.7237949579971991e-04  6.4457329964823793e-04  4.3039938751329807e-04  2.6732488420497946e-04  1.7382696965667548e-04  1.4780423345677347e-04  1.7068587159993864e-04  2.1404424662969910e-04  2.4780959657410125e-04  2.5155384148422790e-04  2.2546754387163412e-04  1.9315784667009363e-04  1.9350520315093006e-04  2.6613221995644729e-04  4.3627698389163579e-04  7.0292622450277779e-04  1.0337089003141339e-03  1.3702160228891190e-03  1.6445177691322120e-03  1.8016138486961128e-03  1.8180085959800592e-03  1.7080421598550746e-03  1.5161419508288917e-03  1.2997159977916925e-03  1.1102548538381373e-03  9.7935078775811713e-04  9.1367151450877056e-04  8.9994504689137260e-04  9.1811512346748141e-04  9.5793374406757340e-04  1.0321944653357844e-03  1.1806362061725347e-03  1.4633749968683647e-03  1.9487143650578948e-03  2.7009130541413994e-03  3.7654027798816937e-03  5.1403560113713626e-03  6.7333304331365180e-03  8.3344121012729928e-03  9.6544673876103812e-03  1.0432880150175322e-02  1.0547132803959984e-02  1.0050004030727795e-02  9.1287742488671639e-03  8.0334753023022926e-03  7.0135338055239407e-03  6.2782170259779108e-03  5.9878652966084212e-03  6.2767879583240345e-03  7.2973222967782610e-03  9.2662877562861967e-03  1.2489452178397201e-02  1.7359474434381593e-02  2.4261975190464979e-02  3.3055532486346323e-02  4.1675165511195530e-02  4.5528351323779706e-02  9.8186791476477108e-04  9.6244520143248910e-04  9.6889509113930281e-04  1.1035806065845043e-03  1.4058437819763924e-03  1.8415513834042015e-03  2.3230189434154704e-03  2.7363624730803861e-03  2.9771801096270330e-03  2.9816546215036734e-03  2.7402235737125085e-03  2.3004925743798097e-03  1.7696472795842421e-03  1.3052840894527216e-03  1.0812405258814447e-03  1.2447020165376871e-03  1.8906933047687553e-03  3.0532067209955585e-03  4.6990976804055472e-03  6.7294945595174653e-03  8.9952140143102870e-03  1.13007337230