<?xml version="1.0"?>
<VTKFile type="UnstructuredGrid"  version="0.1"  >
<UnstructuredGrid>
<Piece  NumberOfPoints="20201" NumberOfCells="40000">
<Points>
<DataArray  type="Float64"  NumberOfComponents="3"  format="ascii">0 0 0  2 0 0  4 0 0  6 0 0  8 0 0  10 0 0  12 0 0  14 0 0  16 0 0  18 0 0  20 0 0  22 0 0  24 0 0  26 0 0  28 0 0  30 0 0  32 0 0  34 0 0  36 0 0  38 0 0  40 0 0  42 0 0  44 0 0  46 0 0  48 0 0  50 0 0  52 0 0  54 0 0  56 0 0  58 0 0  60 0 0  62 0 0  64 0 0  66 0 0  68 0 0  70 0 0  72 0 0  74 0 0  76 0 0  78 0 0  80 0 0  82 0 0  84 0 0  86 0 0  88 0 0  90 0 0  92 0 0  94 0 0  96 0 0  98 0 0  100 0 0  102 0 0  104 0 0  106 0 0  108 0 0  110 0 0  112 0 0  114 0 0  116 0 0  118 0 0  120 0 0  122 0 0  124 0 0  126 0 0  128 0 0  130 0 0  132 0 0  134 0 0  136 0 0  138 0 0  140 0 0  142 0 0  144 0 0  146 0 0  148 0 0  150 0 0  152 0 0  154 0 0  156 0 0  158 0 0  160 0 0  162 0 0  164 0 0  166 0 0  168 0 0  170 0 0  172 0 0  174 0 0  176 0 0  178 0 0  180 0 0  182 0 0  184 0 0  186 0 0  188 0 0  190 0 0  192 0 0  194 0 0  196 0 0  198 0 0  200 0 0  0 2 0  2 2 0  4 2 0  6 2 0  8 2 0  10 2 0  12 2 0  14 2 0  16 2 0  18 2 0  20 2 0  22 2 0  24 2 0  26 2 0  28 2 0  30 2 0  32 2 0  34 2 0  36 2 0  38 2 0  40 2 0  42 2 0  44 2 0  46 2 0  48 2 0  50 2 0  52 2 0  54 2 0  56 2 0  58 2 0  60 2 0  62 2 0  64 2 0  66 2 0  68 2 0  70 2 0  72 2 0  74 2 0  76 2 0  78 2 0  80 2 0  82 2 0  84 2 0  86 2 0  88 2 0  90 2 0  92 2 0  94 2 0  96 2 0  98 2 0  100 2 0  102 2 0  104 2 0  106 2 0  108 2 0  110 2 0  112 2 0  114 2 0  116 2 0  118 2 0  120 2 0  122 2 0  124 2 0  126 2 0  128 2 0  130 2 0  132 2 0  134 2 0  136 2 0  138 2 0  140 2 0  142 2 0  144 2 0  146 2 0  148 2 0  150 2 0  152 2 0  154 2 0  156 2 0  158 2 0  160 2 0  162 2 0  164 2 0  166 2 0  168 2 0  170 2 0  172 2 0  174 2 0  176 2 0  178 2 0  180 2 0  182 2 0  184 2 0  186 2 0  188 2 0  190 2 0  192 2 0  194 2 0  196 2 0  198 2 0  200 2 0  0 4 0  2 4 0  4 4 0  6 4 0  8 4 0  10 4 0  12 4 0  14 4 0  16 4 0  18 4 0  20 4 0  22 4 0  24 4 0  26 4 0  28 4 0  30 4 0  32 4 0  34 4 0  36 4 0  38 4 0  40 4 0  42 4 0  44 4 0  46 4 0  48 4 0  50 4 0  52 4 0  54 4 0  56 4 0  58 4 0  60 4 0  62 4 0  64 4 0  66 4 0  68 4 0  70 4 0  72 4 0  74 4 0  76 4 0  78 4 0  80 4 0  82 4 0  84 4 0  86 4 0  88 4 0  90 4 0  92 4 0  94 4 0  96 4 0  98 4 0  100 4 0  102 4 0  104 4 0  106 4 0  108 4 0  110 4 0  112 4 0  114 4 0  116 4 0  118 4 0  120 4 0  122 4 0  124 4 0  126 4 0  128 4 0  130 4 0  132 4 0  134 4 0  136 4 0  138 4 0  140 4 0  142 4 0  144 4 0  146 4 0  148 4 0  150 4 0  152 4 0  154 4 0  156 4 0  158 4 0  160 4 0  162 4 0  164 4 0  166 4 0  168 4 0  170 4 0  172 4 0  174 4 0  176 4 0  178 4 0  180 4 0  182 4 0  184 4 0  186 4 0  188 4 0  190 4 0  192 4 0  194 4 0  196 4 0  198 4 0  200 4 0  0 6 0  2 6 0  4 6 0  6 6 0  8 6 0  10 6 0  12 6 0  14 6 0  16 6 0  18 6 0  20 6 0  22 6 0  24 6 0  26 6 0  28 6 0  30 6 0  32 6 0  34 6 0  36 6 0  38 6 0  40 6 0  42 6 0  44 6 0  46 6 0  48 6 0  50 6 0  52 6 0  54 6 0  56 6 0  58 6 0  60 6 0  62 6 0  64 6 0  66 6 0  68 6 0  70 6 0  72 6 0  74 6 0  76 6 0  78 6 0  80 6 0  82 6 0  84 6 0  86 6 0  88 6 0  90 6 0  92 6 0  94 6 0  96 6 0  98 6 0  100 6 0  102 6 0  104 6 0  106 6 0  108 6 0  110 6 0  112 6 0  114 6 0  116 6 0  118 6 0  120 6 0  122 6 0  124 6 0  126 6 0  128 6 0  130 6 0  132 6 0  134 6 0  136 6 0  138 6 0  140 6 0  142 6 0  144 6 0  146 6 0  148 6 0  150 6 0  152 6 0  154 6 0  156 6 0  158 6 0  160 6 0  162 6 0  164 6 0  166 6 0  168 6 0  170 6 0  172 6 0  174 6 0  176 6 0  178 6 0  180 6 0  182 6 0  184 6 0  186 6 0  188 6 0  190 6 0  192 6 0  194 6 0  196 6 0  198 6 0  200 6 0  0 8 0  2 8 0  4 8 0  6 8 0  8 8 0  10 8 0  12 8 0  14 8 0  16 8 0  18 8 0  20 8 0  22 8 0  24 8 0  26 8 0  28 8 0  30 8 0  32 8 0  34 8 0  36 8 0  38 8 0  40 8 0  42 8 0  44 8 0  46 8 0  48 8 0  50 8 0  52 8 0  54 8 0  56 8 0  58 8 0  60 8 0  62 8 0  64 8 0  66 8 0  68 8 0  70 8 0  72 8 0  74 8 0  76 8 0  78 8 0  80 8 0  82 8 0  84 8 0  86 8 0  88 8 0  90 8 0  92 8 0  94 8 0  96 8 0  98 8 0  100 8 0  102 8 0  104 8 0  106 8 0  108 8 0  110 8 0  112 8 0  114 8 0  116 8 0  118 8 0  120 8 0  122 8 0  124 8 0  126 8 0  128 8 0  130 8 0  132 8 0  134 8 0  136 8 0  138 8 0  140 8 0  142 8 0  144 8 0  146 8 0  148 8 0  150 8 0  152 8 0  154 8 0  156 8 0  158 8 0  160 8 0  162 8 0  164 8 0  166 8 0  168 8 0  170 8 0  172 8 0  174 8 0  176 8 0  178 8 0  180 8 0  182 8 0  184 8 0  186 8 0  188 8 0  190 8 0  192 8 0  194 8 0  196 8 0  198 8 0  200 8 0  0 10 0  2 10 0  4 10 0  6 10 0  8 10 0  10 10 0  12 10 0  14 10 0  16 10 0  18 10 0  20 10 0  22 10 0  24 10 0  26 10 0  28 10 0  30 10 0  32 10 0  34 10 0  36 10 0  38 10 0  40 10 0  42 10 0  44 10 0  46 10 0  48 10 0  50 10 0  52 10 0  54 10 0  56 10 0  58 10 0  60 10 0  62 10 0  64 10 0  66 10 0  68 10 0  70 10 0  72 10 0  74 10 0  76 10 0  78 10 0  80 10 0  82 10 0  84 10 0  86 10 0  88 10 0  90 10 0  92 10 0  94 10 0  96 10 0  98 10 0  100 10 0  102 10 0  104 10 0  106 10 0  108 10 0  110 10 0  112 10 0  114 10 0  116 10 0  118 10 0  120 10 0  122 10 0  124 10 0  126 10 0  128 10 0  130 10 0  132 10 0  134 10 0  136 10 0  138 10 0  140 10 0  142 10 0  144 10 0  146 10 0  148 10 0  150 10 0  152 10 0  154 10 0  156 10 0  158 10 0  160 10 0  162 10 0  164 10 0  166 10 0  168 10 0  170 10 0  172 10 0  174 10 0  176 10 0  178 10 0  180 10 0  182 10 0  184 10 0  186 10 0  188 10 0  190 10 0  192 10 0  194 10 0  196 10 0  198 10 0  200 10 0  0 12 0  2 12 0  4 12 0  6 12 0  8 12 0  10 12 0  12 12 0  14 12 0  16 12 0  18 12 0  20 12 0  22 12 0  24 12 0  26 12 0  28 12 0  30 12 0  32 12 0  34 12 0  36 12 0  38 12 0  40 12 0  42 12 0  44 12 0  46 12 0  48 12 0  50 12 0  52 12 0  54 12 0  56 12 0  58 12 0  60 12 0  62 12 0  64 12 0  66 12 0  68 12 0  70 12 0  72 12 0  74 12 0  76 12 0  78 12 0  80 12 0  82 12 0  84 12 0  86 12 0  88 12 0  90 12 0  92 12 0  94 12 0  96 12 0  98 12 0  100 12 0  102 12 0  104 12 0  106 12 0  108 12 0  110 12 0  112 12 0  114 12 0  116 12 0  118 12 0  120 12 0  122 12 0  124 12 0  126 12 0  128 12 0  130 12 0  132 12 0  134 12 0  136 12 0  138 12 0  140 12 0  142 12 0  144 12 0  146 12 0  148 12 0  150 12 0  152 12 0  154 12 0  156 12 0  158 12 0  160 12 0  162 12 0  164 12 0  166 12 0  168 12 0  170 12 0  172 12 0  174 12 0  176 12 0  178 12 0  180 12 0  182 12 0  184 12 0  186 12 0  188 12 0  190 12 0  192 12 0  194 12 0  196 12 0  198 12 0  200 12 0  0 14 0  2 14 0  4 14 0  6 14 0  8 14 0  10 14 0  12 14 0  14 14 0  16 14 0  18 14 0  20 14 0  22 14 0  24 14 0  26 14 0  28 14 0  30 14 0  32 14 0  34 14 0  36 14 0  38 14 0  40 14 0  42 14 0  44 14 0  46 14 0  48 14 0  50 14 0  52 14 0  54 14 0  56 14 0  58 14 0  60 14 0  62 14 0  64 14 0  66 14 0  68 14 0  70 14 0  72 14 0  74 14 0  76 14 0  78 14 0  80 14 0  82 14 0  84 14 0  86 14 0  88 14 0  90 14 0  92 14 0  94 14 0  96 14 0  98 14 0  100 14 0  102 14 0  104 14 0  106 14 0  108 14 0  110 14 0  112 14 0  114 14 0  116 14 0  118 14 0  120 14 0  122 14 0  124 14 0  126 14 0  128 14 0  130 14 0  132 14 0  134 14 0  136 14 0  138 14 0  140 14 0  142 14 0  144 14 0  146 14 0  148 14 0  150 14 0  152 14 0  154 14 0  156 14 0  158 14 0  160 14 0  162 14 0  164 14 0  166 14 0  168 14 0  170 14 0  172 14 0  174 14 0  176 14 0  178 14 0  180 14 0  182 14 0  184 14 0  186 14 0  188 14 0  190 14 0  192 14 0  194 14 0  196 14 0  198 14 0  200 14 0  0 16 0  2 16 0  4 16 0  6 16 0  8 16 0  10 16 0  12 16 0  14 16 0  16 16 0  18 16 0  20 16 0  22 16 0  24 16 0  26 16 0  28 16 0  30 16 0  32 16 0  34 16 0  36 16 0  38 16 0  40 16 0  42 16 0  44 16 0  46 16 0  48 16 0  50 16 0  52 16 0  54 16 0  56 16 0  58 16 0  60 16 0  62 16 0  64 16 0  66 16 0  68 16 0  70 16 0  72 16 0  74 16 0  76 16 0  78 16 0  80 16 0  82 16 0  84 16 0  86 16 0  88 16 0  90 16 0  92 16 0  94 16 0  96 16 0  98 16 0  100 16 0  102 16 0  104 16 0  106 16 0  108 16 0  110 16 0  112 16 0  114 16 0  116 16 0  118 16 0  120 16 0  122 16 0  124 16 0  126 16 0  128 16 0  130 16 0  132 16 0  134 16 0  136 16 0  138 16 0  140 16 0  142 16 0  144 16 0  146 16 0  148 16 0  150 16 0  152 16 0  154 16 0  156 16 0  158 16 0  160 16 0  162 16 0  164 16 0  166 16 0  168 16 0  170 16 0  172 16 0  174 16 0  176 16 0  178 16 0  180 16 0  182 16 0  184 16 0  186 16 0  188 16 0  190 16 0  192 16 0  194 16 0  196 16 0  198 16 0  200 16 0  0 18 0  2 18 0  4 18 0  6 18 0  8 18 0  10 18 0  12 18 0  14 18 0  16 18 0  18 18 0  20 18 0  22 18 0  24 18 0  26 18 0  28 18 0  30 18 0  32 18 0  34 18 0  36 18 0  38 18 0  40 18 0  42 18 0  44 18 0  46 18 0  48 18 0  50 18 0  52 18 0  54 18 0  56 18 0  58 18 0  60 18 0  62 18 0  64 18 0  66 18 0  68 18 0  70 18 0  72 18 0  74 18 0  76 18 0  78 18 0  80 18 0  82 18 0  84 18 0  86 18 0  88 18 0  90 18 0  92 18 0  94 18 0  96 18 0  98 18 0  100 18 0  102 18 0  104 18 0  106 18 0  108 18 0  110 18 0  112 18 0  114 18 0  116 18 0  118 18 0  120 18 0  122 18 0  124 18 0  126 18 0  128 18 0  130 18 0  132 18 0  134 18 0  136 18 0  138 18 0  140 18 0  142 18 0  144 18 0  146 18 0  148 18 0  150 18 0  152 18 0  154 18 0  156 18 0  158 18 0  160 18 0  162 18 0  164 18 0  166 18 0  168 18 0  170 18 0  172 18 0  174 18 0  176 18 0  178 18 0  180 18 0  182 18 0  184 18 0  186 18 0  188 18 0  190 18 0  192 18 0  194 18 0  196 18 0  198 18 0  200 18 0  0 20 0  2 20 0  4 20 0  6 20 0  8 20 0  10 20 0  12 20 0  14 20 0  16 20 0  18 20 0  20 20 0  22 20 0  24 20 0  26 20 0  28 20 0  30 20 0  32 20 0  34 20 0  36 20 0  38 20 0  40 20 0  42 20 0  44 20 0  46 20 0  48 20 0  50 20 0  52 20 0  54 20 0  56 20 0  58 20 0  60 20 0  62 20 0  64 20 0  66 20 0  68 20 0  70 20 0  72 20 0  74 20 0  76 20 0  78 20 0  80 20 0  82 20 0  84 20 0  86 20 0  88 20 0  90 20 0  92 20 0  94 20 0  96 20 0  98 20 0  100 20 0  102 20 0  104 20 0  106 20 0  108 20 0  110 20 0  112 20 0  114 20 0  116 20 0  118 20 0  120 20 0  122 20 0  124 20 0  126 20 0  128 20 0  130 20 0  132 20 0  134 20 0  136 20 0  138 20 0  140 20 0  142 20 0  144 20 0  146 20 0  148 20 0  150 20 0  152 20 0  154 20 0  156 20 0
[...]
<PointData  Scalars="f_271-3"> 
<DataArray  type="Float64"  Name="f_271-3"  format="ascii">1.4860770481860856e-14  1.4491962488190664e-14  1.3459094595504159e-14  1.1964216570882450e-14  1.0288077661378719e-14  8.7246760582029152e-15  7.5186889123130192e-15  6.8206677419605324e-15  6.6674490851573052e-15  6.9877581489173840e-15  7.6278503662044323e-15  8.3895436261024051e-15  9.0722445455246146e-15  9.5108027184326448e-15  9.6022298682156699e-15  9.3168445830285065e-15  8.6931407709132688e-15  7.8196875451600523e-15  6.8102722511708610e-15  5.7792955582033005e-15  4.8230534924834796e-15  4.0098008053909568e-15  3.3785228786300691e-15  2.9440698265290086e-15  2.7051709188131445e-15  2.6518657675312371e-15  2.7698214946576382e-15  3.0405029139686471e-15  3.4378398782931475e-15  3.9234965084616279e-15  4.4436996984553055e-15  4.9304850458485843e-15  5.3089851928364973e-15  5.5101851595436911e-15  5.4860643587064163e-15  5.2223024519322714e-15  4.7437669789552870e-15  4.1101558893424723e-15  3.4026821006633195e-15  2.7059691863832509e-15  2.0908168140800869e-15  1.6025922006393521e-15  1.2573971986572962e-15  1.0453084325667062e-15  9.3816708637652042e-16  8.9901588911314533e-16  8.9089427584871354e-16  8.8353633919925818e-16  8.5700294575294632e-16  8.0110024853222913e-16  7.0783025571695373e-16  5.4990731981184049e-16  2.7619191912734615e-16  4.1936437839840709e-17  1.7715606859671571e-18  8.8575519257813986e-20  1.3345212104941524e-21  3.1081653106915714e-23  -1.4412798069479715e-23  -9.2066085102038444e-23  2.3936400821147660e-22  8.6464382280511609e-21  3.7768923580600991e-20  8.5166751110788473e-21  3.2098291671496190e-22  2.8345401272705591e-23  9.3287815962970124e-24  -1.5604722198977734e-23  3.3332516604763512e-22  -5.4190876412617830e-21  9.0274912717678893e-20  -1.4330422000759710e-18  2.7316287503521443e-17  -3.6766300301218450e-16  3.6870952666745216e-14  4.9942560132645066e-13  3.5714363518878902e-12  2.4122095383801682e-11  1.6291124501570650e-10  1.1025266362753784e-09  7.4794273545117326e-09  5.0884619830517733e-08  3.4737489363141021e-07  2.3813675724470584e-06  1.6409057531123259e-05  1.1378980336536850e-04  7.9528842045117312e-04  5.6081752026603945e-03  3.9824319938471436e-02  2.5327997871797303e-01  7.5298615250368628e-01  9.5216047660769820e-01  9.8996925943610126e-01  9.9774413702497267e-01  9.9946098534558847e-01  9.9986005132824418e-01  9.9995881085873994e-01  9.9998543676629048e-01  9.9999338774389523e-01  9.9999593898304118e-01  9.9999655156172296e-01  1.4509996478547180e-14  1.4151615807554393e-14  1.3147811980615165e-14  1.1694590835492706e-14  1.0064442589613072e-14  8.5429541346503198e-15  7.3681243567665486e-15  6.6868032105247494e-15  6.5355232542942649e-15  6.8457723233646333e-15  7.4687649861129528e-15  8.2123178163844908e-15  8.8816716298633609e-15  9.3163067102647866e-15  9.4159588569424109e-15  9.1514977936845020e-15  8.5599667113984847e-15  7.7269872068832834e-15  6.7625697330067439e-15  5.7771605670705793e-15  4.8634326834513759e-15  4.0866639137111891e-15  3.4836455702626001e-15  3.0678276128226327e-15  2.8372764224515127e-15  2.7820273070464346e-15  2.8883307677372188e-15  3.1387760372047669e-15  3.5089388634922639e-15  3.9626417814619404e-15  4.4487439440022999e-15  4.9022618314955720e-15  5.2513976916819261e-15  5.4298968749421023e-15  5.3917214395941568e-15  5.1233496830346966e-15  4.6490695922005564e-15  4.0267368595923879e-15  3.3348748667250436e-15  2.6551642854717222e-15  2.0557994993678807e-15  1.5803057491215127e-15  1.2438847926480307e-15  1.0365990490664749e-15  9.3094659589466677e-16  8.9101581742471012e-16  8.8100373143619152e-16  8.7169134812452089e-16  8.4395082815264700e-16  7.8822938217965848e-16  6.9760533847894272e-16  5.4849382172196460e-16  2.9122619768370272e-16  5.0826589600707504e-17  2.4919458825607579e-18  1.2758912963025029e-19  3.9225676946840864e-21  2.2903058909241103e-22  1.1592005224865356e-22  5.2991695484771540e-22  1.8455875282944797e-21  6.3300648351588301e-20  2.4023545675394176e-19  5.3223258897900021e-20  1.6501150002165773e-21  -8.0123029843251284e-23  -2.8225411493329052e-24  -2.0745710318060038e-23  3.2161739780021351e-22  -4.9640335242661589e-21  8.0909022292181182e-20  -1.1643954236802343e-18  2.3379697898458123e-17  -2.2990202015181715e-16  3.9513895729203545e-14  4.8756766136432552e-13  3.4453220927147733e-12  2.3208475640406360e-11  1.5634720789001261e-10  1.0550839053711075e-09  7.1340097894600822e-09  4.8347918999692839e-08  3.2855248279336586e-07  2.2399449494414027e-06  1.5329894918893671e-05  1.0539149019038929e-04  7.2824424153210873e-04  5.0544164314979432e-03  3.5015591162355045e-02  2.2282355994127004e-01  7.1525588030804754e-01  9.4244823520911569e-01  9.8756978752836255e-01  9.9707493117190071e-01  9.9925405410086154e-01  9.9978784146022426e-01  9.9992990722347086e-01  9.9997171778587546e-01  9.9998545763776370e-01  9.9999025406860453e-01  9.9999146525942306e-01  1.3511034548810337e-14  1.3182306285274365e-14  1.2261208269548745e-14  1.0926695003966857e-14  9.4279094649749733e-15  8.0265779872709522e-15  6.9416366447880516e-15  6.3092105920869612e-15  6.1646952476460740e-15  6.4471673540398370e-15  7.0217614373758207e-15  7.7133121844443503e-15  8.3437751137712452e-15  8.7660712250936408e-15  8.8880536992364922e-15  8.6825553548969247e-15  8.1828320095644014e-15  7.4663280195508072e-15  6.6323310616435980e-15  5.7798524839027187e-15  4.9908841232880973e-15  4.3217295398116762e-15  3.8023901637170532e-15  3.4418450981308045e-15  3.2359427208312091e-15  3.1745927910277241e-15  3.2458267475047568e-15  3.4357538179831662e-15  3.7250794955975032e-15  4.0842487276325372e-15  4.4700387242462393e-15  4.8262584945436581e-15  5.0900043324454730e-15  5.2028839834122888e-15  5.1243842917600353e-15  4.8430592541661066e-15  4.3813214274760811e-15  3.7915734243729664e-15  3.1445214783676364e-15  2.5133706191312913e-15  1.9588644403420410e-15  1.5193054434100489e-15  1.2073946461145643e-15  1.0132386116877065e-15  9.1129381206920401e-16  8.6869936244895282e-16  8.5299335034517563e-16  8.3794709985387778e-16  8.0671149670418950e-16  7.5145039517863996e-16  6.6784261752880983e-16  5.4086523153800012e-16  3.2947193024445922e-16  8.4855979111543183e-17  6.3047031933589962e-18  3.7200465795068162e-19  2.0396076733854342e-20  7.4760057225319748e-22  -6.6308003943867504e-22  -3.2270190709998630e-21  4.5640981373586942e-20  7.6803805874748938e-19  2.6200426293943829e-18  5.3803464487479863e-19  1.3251467336166233e-20  6.4889759930019556e-22  -5.6191974807522506e-23  -2.0551913469989475e-23  2.4530382847896050e-22  -1.7410936183873459e-21  2.8290306615694667e-20  2.4316905798930708e-19  6.3601533554131897e-18  3.9777409384048925e-16  4.5384376393281145e-14  4.4999710495857552e-13  3.0920968417586852e-12  2.0670806481641251e-11  1.3820818118054650e-10  9.2473725459608805e-10  6.1913332493467095e-09  4.1479333041763073e-08  2.7806409953606485e-07  1.8649163466264001e-06  1.2508751714734116e-05  8.3839498253365834e-05  5.6045148210236400e-04  3.7189767046420350e-03  2.4187891206655949e-02  1.4917455843629182e-01  5.8264725787856109e-01  9.0331573582654845e-01  9.7767814745908843e-01  9.9421574269934243e-01  9.9831335338838423e-01  9.9943963283965054e-01  9.9978075183169901e-01  9.9989622170451675e-01  9.9993936846168363e-01  9.9995600788698802e-01  9.9996044003112550e-01  1.2011537215829463e-14  1.1727198493671938e-14  1.0930082657502047e-14  9.7740392469446115e-15  8.4736949705613106e-15  7.2552479878708022e-15  6.3088870217496544e-15  5.7540759450375535e-15  5.6236630005846412e-15  5.8672454757484271e-15  6.3702084330817002e-15  6.9827108578764386e-15  7.5520919717638145e-15  7.9522273883509446e-15  8.1042776887610352e-15  7.9852636610344318e-15  7.6238528681184820e-15  7.0859188562921305e-15  6.4547801426979819e-15  5.8117525032466187e-15  5.2216537275239858e-15  4.7257424377107577e-15  4.3421028041595267e-15  4.0714594171494892e-15  3.9052780863851338e-15  3.8329231677776528e-15  3.8454884561024564e-15  3.9353870338119171e-15  4.0924355584354245e-15  4.2985267644046528e-15  4.5236509300194784e-15  4.7257626603774155e-15  4.8557781990059048e-15  4.8671043611496620e-15  4.7271362051333368e-15  4.4269196093102790e-15  3.9853468581159790e-15  3.4459867486550190e-15  2.8673150258068796e-15  2.3095151562120140e-15  1.8220471631476893e-15  1.4354459873750819e-15  1.1588560338322326e-15  9.8271557446839603e-16  8.8469407210502271e-16  8.3673534924983392e-16  8.1152891197782900e-16  7.8736216665032151e-16  7.5071642427869325e-16  6.9604727181899190e-16  6.2188674672229026e-16  5.2171532665517186e-16  3.7071545904354014e-16  1.5827585920937901e-16  2.4194442728153488e-17  1.8553093887853562e-18  2.3037322649305051e-19  3.7342614283110922e-20  1.6545900386500849e-20  7.3744488262047328e-20  7.1411360341517608e-19  1.1170079881763761e-17  2.3031451030143682e-17  4.4489453438399899e-18  1.4754153914626887e-19  1.1121495785479811e-21  1.1142360723295069e-21  1.2208665089507237e-22  -2.9979648012593815e-22  1.6863246625743029e-20  -8.3465431180784508e-20  4.2021684427773910e-18  -1.1298576803547668e-17  2.0298384039214593e-15  4.8993766765969971e-14  3.8709077510282895e-13  2.5805046587542911e-12  1.7045197371999001e-11  1.1255503100724249e-10  7.4250789435696032e-10  4.8909153111817324e-09  3.2151361287035796e-08  2.1076457760419011e-07  1.3762024868813269e-06  8.9344274729958296e-06  5.7501090292500192e-05  3.6505663226914410e-04  2.2662835785452842e-03  1.3569973021240115e-02  7.6085712382589710e-02  3.5401059073698271e-01  7.8933738470613746e-01  9.4799078739742060e-01  9.8493273164082495e-01  9.9505049934038459e-01  9.9812037053045999e-01  9.9916682943320601e-01  9.9956028766526206e-01  9.9972147132580780e-01  9.9978766321660706e-01  9.9980583509900656e-01  1.0220073781260277e-14  9.9885785073438128e-15  9.3393808725276592e-15  8.3972408562830805e-15  7.3365287307746728e-15  6.3415362419728386e-15  5.5678665507066475e-15  5.1140275963074254e-15  5.0082349603229056e-15  5.2109823799268967e-15  5.6305812348146286e-15  6.1469698793730061e-15  6.6383234560688422e-15  7.0050113400955448e-15  7.1862436124718467e-15  7.1664607743760883e-15  6.9710189358298561e-15  6.6533972832527615e-15  6.2781467349494998e-15  5.9044566091394998e-15  5.5744204388320168e-15  5.3082353128984711e-15  5.1063392702840556e-15  4.9565367813711535e-15  4.8429750945945126e-15  4.7536758689818452e-15  4.6841862528479859e-15  4.6364891259075741e-15  4.6140771348282555e-15  4.6154709521790838e-15  4.6290181365904445e-15  4.6313851062916475e-15  4.5908779993906560e-15  4.4749722057231707e-15  4.2597575962677839e-15  3.9380528721469793e-15  3.5231872105866759e-15  3.0469252619907631e-15  2.5521696261488614e-15  2.0829646328829330e-15  1.6750946342375651e-15  1.3499538584476451e-15  1.1128194857842588e-15  9.5503728708685908e-16  8.5863668071538294e-16  8.0172648406405495e-16  7.6340414926321228e-16  7.2740459141415220e-16  6.8403901847169298e-16  6.3008301612982535e-16  5.6622945807574257e-16  4.9162536023613793e-16  3.9570738260956415e-16  2.5585447726578137e-16  9.5387905454662611e-17  1.7843869049080943e-17  2.7863250685426666e-18  6.3181833152050705e-19  4.4324464062739217e-19  2.0646257919198878e-18  2.0986339084180249e-17  9.8193995463367498e-17  1.2511954951410478e-16  3.4128370488932954e-17  1.8993165763495133e-18  1.5052852284234291e-19  5.5376104439362727e-21  2.7116501042671384e-21  9.5477683423736957e-21  8.7618207766119742e-20  8.1997517915337356e-19  1.1201207436276579e-17  1.4289988898061758e-16  4.6119033951046598e-15  4.5861086714788122e-14  3.0843685829262190e-13  2.0024886072811506e-12  1.3016305948163306e-11  8.4476143970481658e-11  5.4644694450059492e-10  3.5193162902395333e-09  2.2538819645675629e-08  1.4329812744088875e-07  9.0231049537345712e-07  5.6076756986418640e-06  3.4223140388553715e-05  2.0356882616244938e-04  1.1678506275137469e-03  6.3601316318857163e-03  3.2339038566023333e-02  1.5144599269357994e-01  5.1722142387524717e-01  8.4829201815063004e-01  9.5337196130959445e-01  9.8301715802160161e-01  9.9291582240774190e-01  9.9654527519150704e-01  9.9803021113980017e-01  9.9867792064980476e-01  9.9895365346218079e-01  9.9903049643979280e-01  8.3619254383947286e-15  8.1850218092682884e-15  7.6891194268768451e-15  6.9701231076488821e-15  6.1620881993118966e-15  5.4066482491593566e-15  4.8231994114604072e-15  4.4869676995565080e-15  4.4189779804681308e-15  4.5884631541333502e-15  4.9255105469375912e-15  5.3401097038694834e-15  5.7430836648015024e-15  6.0644320978111274e-15  6.2653599965465315e-15  6.3417590617183656e-15  6.3189935585844474e-15  6.2400278304367711e-15  6.1505612594223969e-15  6.0854024069086247e-15  6.0596827545939506e-15  6.0669200533044898e-15  6.0838650747236574e-15  6.0800745467209121e-15  6.0288153943908377e-15  5.9156576126481193e-15  5.7420776232250583e-15  5.5232499664004206e-15  5.2812626797967315e-15  5.0364862866788189e-15  4.8002622886541165e-15  4.5714028853713748e-15  4.3375397382765132e-15  4.0806493159153105e-15  3.7846621570855824e-15  3.4423888337884593e-15  3.0593160740267441e-15  2.6530543537091060e-15  2.2488791021699048e-15  1.8731982243334300e-15  1.5473104197082743e-15  1.2833446538794012e-15  1.0831547613835378e-15  9.3980749757310457e-16  8.4063974147782168e-16  7.7078485983355093e-16  7.1635709104447343e-16  6.6682074181977818e-16  6.1627341713938104e-16  5.6343849442054717e-16  5.1018140649563036e-16  4.5842608405295488e-16  4.0558472178944336e-16  3.3974458404172608e-16  2.4214617697882612e-16  1.2750661195724791e-16  5.4932073853613690e-17  3.0688323054250960e-17  3.3074095391767082e-17  7.3857382408711028e-17  2.0779018841718891e-16  3.8344218701372388e-16  3.9369125129347577e-16  1.9147889228739371e-16  3.1174125902253694e-17  2.4019710749481311e-18  3.9691979256986660e-19  1.6686206314870226e-19  2.9374332172637676e-19  1.2757418487924020e-18  8.9918722875100240e-18  8.1371196002647250e-17  8.3142488266410133e-16  6.2309323978109733e-15  3.7216832921046434e-14  2.2821645176314858e-13  1.4455566719067438e-12  9.2085344243842524e-12  5.8462406825816208e-11  3.6888397888712554e-10  2.3092063493058695e-09  1.4312635835852754e-08  8.7600508592511451e-08  5.2754478284331284e-07  3.1105825871548477e-06  1.7838591504593625e-05  9.8638944379303978e-05  5.2016117329186620e-04  2.5874213717643510e-03  1.2050695439968348e-02  5.1349594050333139e-02  1.9988381053016407e-01  5.4673040454023158e-01  8.2882733807714160e-01  9.3501769309410143e-01  9.7074381146247180e-01  9.8477666693982191e-01  9.9083289008086817e-01  9.9355749468675059e-01  9.9473476456779364e-01  9.9506520747412808e-01  6.6363931581871897e-15  6.5099731976149782e-15  6.1564568488010707e-15  5.6466256867223634e-15  5.0789459248437742e-15  4.5565078718766204e-15  4.1647066988636644e-15  3.9551898919358610e-15  3.9391986162669793e-15  4.0906562866495854e-15  4.3570931389172460e-15  4.6751090845832043e-15  4.9865331720251823e-15  5.2515977442253820e-15  5.4562448732091126e-15  5.6120726604451566e-15  5.7492133645343476e-15  5.9042169207112600e-15  6.1063169631607392e-15  6.3659170049277361e-15  6.6686057577834169e-15  6.9765679852780372e-15  7.2371828212317417e-15  7.3964038091066081e-15  7.4128977384858121e-15  7.2685661862710541e-15  6.9722746832986636e-15  6.5559877835618938e-15  6.0650948919796528e-15  5.5464559924397059e-15  5.0379974814439585e-15  4.5626413791722002e-15  4.1275665247114914e-15  3.7280117202578172e-15  3.3535897990334748e-15  2.9946580870019101e-15  2.6466960629983078e-15  2.3116604460246709e-15  1.9965180683267466e-15  1.7101196132544817e-15  1.4599213676356886e-15  1.2497427413405578e-15  1.0790407306665574e-15  9.4350342110377105e-16  8.3641103181941906e-16  7.5022107073964998e-16  6.7802941621464917e-16  6.1473167332014893e-16  5.5776057814794521e-16  5.0724100278673571e-16  4.6537837246472478e-16  4.3495734223197293e-16  4.1699674954956557e-16  4.0789934888815735e-16  3.9713783563000101e-16  3.6994164365448936e-16  3.2895429598699497e-16  3.0985022168356974e-16  3.5530142791912734e-16  4.9294368935854427e-16  6.8919761034322832e-16  8.3006145143632959e-16  8.1849061976040648e-16  6.0402210287571948e-16  2.6719422128403860e-16  6.8873517113007957e-17  1.7573197661159814e-17  8.3683925215362855e-18  1.0194643193461734e-17  2.7421930868737883e-17  1.1417183207344526e-16  5.0303160719174098e-16  1.7577713930652097e-15  5.9414393819756373e-15  2.7281047752044258e-14  1.5751697314102534e-13  9.7143272576401115e-13  6.0391387556101713e-12  3.7336720777470054e-11  2.2866699583180546e-10  1.3838255749275255e-09  8.2517139307350221e-09  4.8309726645264775e-08  2.7640070599766212e-07  1.5363153468522443e-06  8.2350761628845742e-06  4.2203462841635883e-05  2.0498316647188491e-04  9.3640286718428729e-04  3.9742989419061132e-03  1.5666671286251058e-02  5.5499574584281508e-02  1.7987318779774897e-01  4.4748444515104496e-01  7.2261508219711457e-01  8.6643842226470169e-01  9.2820153434204022e-01  9.5515496021593571e-01  9.6724993687823779e-01  9.7251423271646131e-01  9.7401335156572766e-01  5.1857860112664493e-15  5.1015984298926149e-15  4.8679296598350873e-15  4.5363867810814062e-15  4.1777006736855336e-15  3.8638827994006845e-15  3.6514027613306431e-15  3.5698675988892257e-15  3.6186386078650925e-15  3.7714248921107772e-15  3.9869051337380577e-15  4.2222222229698907e-15  4.4458113367263512e-15  4.6463679915982608e-15  4.8357283937583042e-15  5.0448680060567335e-15  5.3138688772172891e-15  5.6782199734057983e-15  6.1548694885826740e-15  6.7318050055467044e-15  7.3644410293919382e-15  7.9806635983715812e-15  8.4941218307407922e-15  8.8227488881129132e-15  8.9074499715280567e-15  8.7254230573707660e-15  8.2941695614430085e-15  7.6654087476210072e-15  6.9114806339539278e-15  6.1089462719031994e-15  5.3242286541402493e-15  4.6045738847122424e-15  3.9753262323849053e-15  3.4425090629861511e-15  2.9985628497105829e-15  2.6288911634473598e-15  2.3173746603666235e-15  2.0498889462964606e-15  1.8157595657510443e-15  1.6077212019987594e-15  1.4211658392860039e-15  1.2533026557885641e-15  1.1025103404910085e-15  9.6787983899195418e-16  8.4885733745266898e-16  7.4497258027996820e-16  6.5573843167206382e-16  5.8081045617979580e-16  5.2037661233885406e-16  4.7558181121251353e-16  4.4869205603906907e-16  4.4274633348388331e-16  4.6064463012515010e-16  5.0371590031709080e-16  5.6999724701653900e-16  6.5313583280442385e-16  7.4656342586445757e-16  8.5384679421418434e-16  9.9081622045631963e-16  1.1568202378252774e-15  1.3121619177386011e-15  1.4018008683609277e-15  1.3813623492429647e-15  1.2184633706794491e-15  9.0721649237351761e-16  5.4275083160314260e-16  2.8907672738887499e-16  1.8679573400484386e-16  1.8980114628082004e-16  3.0241056456557924e-16  5.9844973770090388e-16  1.1482456663166600e-15  2.0884168568892752e-15  4.7999401784273668e-15  1.8674177545787572e-14  1.0180755436607674e-13  6.0835245381850868e-13  3.6747277354145221e-12  2.2028830544608200e-11  1.3035948846255156e-10  7.5897867492449329e-10  4.3321562710162917e-09  2.4137104058805821e-08  1.3057727833891069e-07  6.8155334291746121e-07  3.4076146711959761e-06  1.6198287353187075e-05  7.2680459771492595e-05  3.0519384558020285e-04  1.1937449806038770e-03  4.2830801133236108e-03  1.4180175894143426e-02  4.2197091562111835e-02  1.1399586583853219e-01  2.6392738151554601e-01  4.7532348999998059e-01  6.5903430023743126e-01  7.6637738135811584e-01  8.2037503318449967e-01  8.4587275540817697e-01  8.5349371528093854e-01  4.0812412488739939e-15  4.0289398691194099e-15  3.8865553442397493e-15  3.6932337362233690e-15  3.5010358129766512e-15  3.3598855521297642e-15  3.3040268222632585e-15  3.3440043876545034e-15  3.4661729276689933e-15  3.6394028432780801e-15  3.8267264455479164e-15  3.9985413855817031e-15  4.1437481290870228e-15  4.2757723255384110e-15  4.4316501866073113e-15  4.6639779278970862e-15  5.0272038226386366e-15  5.5611424529591449e-15  6.2754923166932814e-15  7.1394069950341359e-15  8.079643463934561