<?xml version="1.0"?>
<VTKFile type="UnstructuredGrid"  version="0.1"  >
<UnstructuredGrid>
<Piece  NumberOfPoints="20201" NumberOfCells="40000">
<Points>
<DataArray  type="Float64"  NumberOfComponents="3"  format="ascii">0 0 0  2 0 0  4 0 0  6 0 0  8 0 0  10 0 0  12 0 0  14 0 0  16 0 0  18 0 0  20 0 0  22 0 0  24 0 0  26 0 0  28 0 0  30 0 0  32 0 0  34 0 0  36 0 0  38 0 0  40 0 0  42 0 0  44 0 0  46 0 0  48 0 0  50 0 0  52 0 0  54 0 0  56 0 0  58 0 0  60 0 0  62 0 0  64 0 0  66 0 0  68 0 0  70 0 0  72 0 0  74 0 0  76 0 0  78 0 0  80 0 0  82 0 0  84 0 0  86 0 0  88 0 0  90 0 0  92 0 0  94 0 0  96 0 0  98 0 0  100 0 0  102 0 0  104 0 0  106 0 0  108 0 0  110 0 0  112 0 0  114 0 0  116 0 0  118 0 0  120 0 0  122 0 0  124 0 0  126 0 0  128 0 0  130 0 0  132 0 0  134 0 0  136 0 0  138 0 0  140 0 0  142 0 0  144 0 0  146 0 0  148 0 0  150 0 0  152 0 0  154 0 0  156 0 0  158 0 0  160 0 0  162 0 0  164 0 0  166 0 0  168 0 0  170 0 0  172 0 0  174 0 0  176 0 0  178 0 0  180 0 0  182 0 0  184 0 0  186 0 0  188 0 0  190 0 0  192 0 0  194 0 0  196 0 0  198 0 0  200 0 0  0 2 0  2 2 0  4 2 0  6 2 0  8 2 0  10 2 0  12 2 0  14 2 0  16 2 0  18 2 0  20 2 0  22 2 0  24 2 0  26 2 0  28 2 0  30 2 0  32 2 0  34 2 0  36 2 0  38 2 0  40 2 0  42 2 0  44 2 0  46 2 0  48 2 0  50 2 0  52 2 0  54 2 0  56 2 0  58 2 0  60 2 0  62 2 0  64 2 0  66 2 0  68 2 0  70 2 0  72 2 0  74 2 0  76 2 0  78 2 0  80 2 0  82 2 0  84 2 0  86 2 0  88 2 0  90 2 0  92 2 0  94 2 0  96 2 0  98 2 0  100 2 0  102 2 0  104 2 0  106 2 0  108 2 0  110 2 0  112 2 0  114 2 0  116 2 0  118 2 0  120 2 0  122 2 0  124 2 0  126 2 0  128 2 0  130 2 0  132 2 0  134 2 0  136 2 0  138 2 0  140 2 0  142 2 0  144 2 0  146 2 0  148 2 0  150 2 0  152 2 0  154 2 0  156 2 0  158 2 0  160 2 0  162 2 0  164 2 0  166 2 0  168 2 0  170 2 0  172 2 0  174 2 0  176 2 0  178 2 0  180 2 0  182 2 0  184 2 0  186 2 0  188 2 0  190 2 0  192 2 0  194 2 0  196 2 0  198 2 0  200 2 0  0 4 0  2 4 0  4 4 0  6 4 0  8 4 0  10 4 0  12 4 0  14 4 0  16 4 0  18 4 0  20 4 0  22 4 0  24 4 0  26 4 0  28 4 0  30 4 0  32 4 0  34 4 0  36 4 0  38 4 0  40 4 0  42 4 0  44 4 0  46 4 0  48 4 0  50 4 0  52 4 0  54 4 0  56 4 0  58 4 0  60 4 0  62 4 0  64 4 0  66 4 0  68 4 0  70 4 0  72 4 0  74 4 0  76 4 0  78 4 0  80 4 0  82 4 0  84 4 0  86 4 0  88 4 0  90 4 0  92 4 0  94 4 0  96 4 0  98 4 0  100 4 0  102 4 0  104 4 0  106 4 0  108 4 0  110 4 0  112 4 0  114 4 0  116 4 0  118 4 0  120 4 0  122 4 0  124 4 0  126 4 0  128 4 0  130 4 0  132 4 0  134 4 0  136 4 0  138 4 0  140 4 0  142 4 0  144 4 0  146 4 0  148 4 0  150 4 0  152 4 0  154 4 0  156 4 0  158 4 0  160 4 0  162 4 0  164 4 0  166 4 0  168 4 0  170 4 0  172 4 0  174 4 0  176 4 0  178 4 0  180 4 0  182 4 0  184 4 0  186 4 0  188 4 0  190 4 0  192 4 0  194 4 0  196 4 0  198 4 0  200 4 0  0 6 0  2 6 0  4 6 0  6 6 0  8 6 0  10 6 0  12 6 0  14 6 0  16 6 0  18 6 0  20 6 0  22 6 0  24 6 0  26 6 0  28 6 0  30 6 0  32 6 0  34 6 0  36 6 0  38 6 0  40 6 0  42 6 0  44 6 0  46 6 0  48 6 0  50 6 0  52 6 0  54 6 0  56 6 0  58 6 0  60 6 0  62 6 0  64 6 0  66 6 0  68 6 0  70 6 0  72 6 0  74 6 0  76 6 0  78 6 0  80 6 0  82 6 0  84 6 0  86 6 0  88 6 0  90 6 0  92 6 0  94 6 0  96 6 0  98 6 0  100 6 0  102 6 0  104 6 0  106 6 0  108 6 0  110 6 0  112 6 0  114 6 0  116 6 0  118 6 0  120 6 0  122 6 0  124 6 0  126 6 0  128 6 0  130 6 0  132 6 0  134 6 0  136 6 0  138 6 0  140 6 0  142 6 0  144 6 0  146 6 0  148 6 0  150 6 0  152 6 0  154 6 0  156 6 0  158 6 0  160 6 0  162 6 0  164 6 0  166 6 0  168 6 0  170 6 0  172 6 0  174 6 0  176 6 0  178 6 0  180 6 0  182 6 0  184 6 0  186 6 0  188 6 0  190 6 0  192 6 0  194 6 0  196 6 0  198 6 0  200 6 0  0 8 0  2 8 0  4 8 0  6 8 0  8 8 0  10 8 0  12 8 0  14 8 0  16 8 0  18 8 0  20 8 0  22 8 0  24 8 0  26 8 0  28 8 0  30 8 0  32 8 0  34 8 0  36 8 0  38 8 0  40 8 0  42 8 0  44 8 0  46 8 0  48 8 0  50 8 0  52 8 0  54 8 0  56 8 0  58 8 0  60 8 0  62 8 0  64 8 0  66 8 0  68 8 0  70 8 0  72 8 0  74 8 0  76 8 0  78 8 0  80 8 0  82 8 0  84 8 0  86 8 0  88 8 0  90 8 0  92 8 0  94 8 0  96 8 0  98 8 0  100 8 0  102 8 0  104 8 0  106 8 0  108 8 0  110 8 0  112 8 0  114 8 0  116 8 0  118 8 0  120 8 0  122 8 0  124 8 0  126 8 0  128 8 0  130 8 0  132 8 0  134 8 0  136 8 0  138 8 0  140 8 0  142 8 0  144 8 0  146 8 0  148 8 0  150 8 0  152 8 0  154 8 0  156 8 0  158 8 0  160 8 0  162 8 0  164 8 0  166 8 0  168 8 0  170 8 0  172 8 0  174 8 0  176 8 0  178 8 0  180 8 0  182 8 0  184 8 0  186 8 0  188 8 0  190 8 0  192 8 0  194 8 0  196 8 0  198 8 0  200 8 0  0 10 0  2 10 0  4 10 0  6 10 0  8 10 0  10 10 0  12 10 0  14 10 0  16 10 0  18 10 0  20 10 0  22 10 0  24 10 0  26 10 0  28 10 0  30 10 0  32 10 0  34 10 0  36 10 0  38 10 0  40 10 0  42 10 0  44 10 0  46 10 0  48 10 0  50 10 0  52 10 0  54 10 0  56 10 0  58 10 0  60 10 0  62 10 0  64 10 0  66 10 0  68 10 0  70 10 0  72 10 0  74 10 0  76 10 0  78 10 0  80 10 0  82 10 0  84 10 0  86 10 0  88 10 0  90 10 0  92 10 0  94 10 0  96 10 0  98 10 0  100 10 0  102 10 0  104 10 0  106 10 0  108 10 0  110 10 0  112 10 0  114 10 0  116 10 0  118 10 0  120 10 0  122 10 0  124 10 0  126 10 0  128 10 0  130 10 0  132 10 0  134 10 0  136 10 0  138 10 0  140 10 0  142 10 0  144 10 0  146 10 0  148 10 0  150 10 0  152 10 0  154 10 0  156 10 0  158 10 0  160 10 0  162 10 0  164 10 0  166 10 0  168 10 0  170 10 0  172 10 0  174 10 0  176 10 0  178 10 0  180 10 0  182 10 0  184 10 0  186 10 0  188 10 0  190 10 0  192 10 0  194 10 0  196 10 0  198 10 0  200 10 0  0 12 0  2 12 0  4 12 0  6 12 0  8 12 0  10 12 0  12 12 0  14 12 0  16 12 0  18 12 0  20 12 0  22 12 0  24 12 0  26 12 0  28 12 0  30 12 0  32 12 0  34 12 0  36 12 0  38 12 0  40 12 0  42 12 0  44 12 0  46 12 0  48 12 0  50 12 0  52 12 0  54 12 0  56 12 0  58 12 0  60 12 0  62 12 0  64 12 0  66 12 0  68 12 0  70 12 0  72 12 0  74 12 0  76 12 0  78 12 0  80 12 0  82 12 0  84 12 0  86 12 0  88 12 0  90 12 0  92 12 0  94 12 0  96 12 0  98 12 0  100 12 0  102 12 0  104 12 0  106 12 0  108 12 0  110 12 0  112 12 0  114 12 0  116 12 0  118 12 0  120 12 0  122 12 0  124 12 0  126 12 0  128 12 0  130 12 0  132 12 0  134 12 0  136 12 0  138 12 0  140 12 0  142 12 0  144 12 0  146 12 0  148 12 0  150 12 0  152 12 0  154 12 0  156 12 0  158 12 0  160 12 0  162 12 0  164 12 0  166 12 0  168 12 0  170 12 0  172 12 0  174 12 0  176 12 0  178 12 0  180 12 0  182 12 0  184 12 0  186 12 0  188 12 0  190 12 0  192 12 0  194 12 0  196 12 0  198 12 0  200 12 0  0 14 0  2 14 0  4 14 0  6 14 0  8 14 0  10 14 0  12 14 0  14 14 0  16 14 0  18 14 0  20 14 0  22 14 0  24 14 0  26 14 0  28 14 0  30 14 0  32 14 0  34 14 0  36 14 0  38 14 0  40 14 0  42 14 0  44 14 0  46 14 0  48 14 0  50 14 0  52 14 0  54 14 0  56 14 0  58 14 0  60 14 0  62 14 0  64 14 0  66 14 0  68 14 0  70 14 0  72 14 0  74 14 0  76 14 0  78 14 0  80 14 0  82 14 0  84 14 0  86 14 0  88 14 0  90 14 0  92 14 0  94 14 0  96 14 0  98 14 0  100 14 0  102 14 0  104 14 0  106 14 0  108 14 0  110 14 0  112 14 0  114 14 0  116 14 0  118 14 0  120 14 0  122 14 0  124 14 0  126 14 0  128 14 0  130 14 0  132 14 0  134 14 0  136 14 0  138 14 0  140 14 0  142 14 0  144 14 0  146 14 0  148 14 0  150 14 0  152 14 0  154 14 0  156 14 0  158 14 0  160 14 0  162 14 0  164 14 0  166 14 0  168 14 0  170 14 0  172 14 0  174 14 0  176 14 0  178 14 0  180 14 0  182 14 0  184 14 0  186 14 0  188 14 0  190 14 0  192 14 0  194 14 0  196 14 0  198 14 0  200 14 0  0 16 0  2 16 0  4 16 0  6 16 0  8 16 0  10 16 0  12 16 0  14 16 0  16 16 0  18 16 0  20 16 0  22 16 0  24 16 0  26 16 0  28 16 0  30 16 0  32 16 0  34 16 0  36 16 0  38 16 0  40 16 0  42 16 0  44 16 0  46 16 0  48 16 0  50 16 0  52 16 0  54 16 0  56 16 0  58 16 0  60 16 0  62 16 0  64 16 0  66 16 0  68 16 0  70 16 0  72 16 0  74 16 0  76 16 0  78 16 0  80 16 0  82 16 0  84 16 0  86 16 0  88 16 0  90 16 0  92 16 0  94 16 0  96 16 0  98 16 0  100 16 0  102 16 0  104 16 0  106 16 0  108 16 0  110 16 0  112 16 0  114 16 0  116 16 0  118 16 0  120 16 0  122 16 0  124 16 0  126 16 0  128 16 0  130 16 0  132 16 0  134 16 0  136 16 0  138 16 0  140 16 0  142 16 0  144 16 0  146 16 0  148 16 0  150 16 0  152 16 0  154 16 0  156 16 0  158 16 0  160 16 0  162 16 0  164 16 0  166 16 0  168 16 0  170 16 0  172 16 0  174 16 0  176 16 0  178 16 0  180 16 0  182 16 0  184 16 0  186 16 0  188 16 0  190 16 0  192 16 0  194 16 0  196 16 0  198 16 0  200 16 0  0 18 0  2 18 0  4 18 0  6 18 0  8 18 0  10 18 0  12 18 0  14 18 0  16 18 0  18 18 0  20 18 0  22 18 0  24 18 0  26 18 0  28 18 0  30 18 0  32 18 0  34 18 0  36 18 0  38 18 0  40 18 0  42 18 0  44 18 0  46 18 0  48 18 0  50 18 0  52 18 0  54 18 0  56 18 0  58 18 0  60 18 0  62 18 0  64 18 0  66 18 0  68 18 0  70 18 0  72 18 0  74 18 0  76 18 0  78 18 0  80 18 0  82 18 0  84 18 0  86 18 0  88 18 0  90 18 0  92 18 0  94 18 0  96 18 0  98 18 0  100 18 0  102 18 0  104 18 0  106 18 0  108 18 0  110 18 0  112 18 0  114 18 0  116 18 0  118 18 0  120 18 0  122 18 0  124 18 0  126 18 0  128 18 0  130 18 0  132 18 0  134 18 0  136 18 0  138 18 0  140 18 0  142 18 0  144 18 0  146 18 0  148 18 0  150 18 0  152 18 0  154 18 0  156 18 0  158 18 0  160 18 0  162 18 0  164 18 0  166 18 0  168 18 0  170 18 0  172 18 0  174 18 0  176 18 0  178 18 0  180 18 0  182 18 0  184 18 0  186 18 0  188 18 0  190 18 0  192 18 0  194 18 0  196 18 0  198 18 0  200 18 0  0 20 0  2 20 0  4 20 0  6 20 0  8 20 0  10 20 0  12 20 0  14 20 0  16 20 0  18 20 0  20 20 0  22 20 0  24 20 0  26 20 0  28 20 0  30 20 0  32 20 0  34 20 0  36 20 0  38 20 0  40 20 0  42 20 0  44 20 0  46 20 0  48 20 0  50 20 0  52 20 0  54 20 0  56 20 0  58 20 0  60 20 0  62 20 0  64 20 0  66 20 0  68 20 0  70 20 0  72 20 0  74 20 0  76 20 0  78 20 0  80 20 0  82 20 0  84 20 0  86 20 0  88 20 0  90 20 0  92 20 0  94 20 0  96 20 0  98 20 0  100 20 0  102 20 0  104 20 0  106 20 0  108 20 0  110 20 0  112 20 0  114 20 0  116 20 0  118 20 0  120 20 0  122 20 0  124 20 0  126 20 0  128 20 0  130 20 0  132 20 0  134 20 0  136 20 0  138 20 0  140 20 0  142 20 0  144 20 0  146 20 0  148 20 0  150 20 0  152 20 0  154 20 0  156 20 0
[...]
<PointData  Scalars="f_271-3"> 
<DataArray  type="Float64"  Name="f_271-3"  format="ascii">2.7755294978453641e-13  2.7001358179088365e-13  2.4895115709177015e-13  2.1861986841827074e-13  1.8487839613616270e-13  1.5377891755074748e-13  1.3025882378989815e-13  1.1724891399968305e-13  1.1532829724685045e-13  1.2289251324304155e-13  1.3670824857993375e-13  1.5269736439936382e-13  1.6678996051693126e-13  1.7568936219492049e-13  1.7740747029055697e-13  1.7147468560528942e-13  1.5880778570251007e-13  1.4130905389670338e-13  1.2133475208533021e-13  1.0118547725911757e-13  8.2735411619765070e-14  6.7253946006556924e-14  5.5409226229852341e-14  4.7398052084560508e-14  4.3126908856004116e-14  4.2372433308318526e-14  4.4870197192577694e-14  5.0311392921422011e-14  5.8260933023096533e-14  6.8040740003753929e-14  7.8641421940228857e-14  8.8726659665554581e-14  9.6771617495017141e-14  1.0132998760070609e-13  1.0136619289916678e-13  9.6544402862111854e-14  8.7361399735459011e-14  7.5057901788204551e-14  6.1326473111215125e-14  4.7913713738671588e-14  3.6249337166128303e-14  2.7209607664887990e-14  2.1056641958487794e-14  1.7527321548048538e-14  1.6008013260699837e-14  1.5730855807379475e-14  1.5948387470320144e-14  1.6064607750351761e-14  1.5710760729103214e-14  1.4753567665783472e-14  1.3213514886982760e-14  1.1029715374530586e-14  7.5586989197306203e-15  2.6281733756874718e-15  2.6507132009730643e-16  1.0023182778784589e-17  1.3240221667485496e-19  6.8854434478388504e-21  3.3008008194671803e-21  1.1689139730729563e-20  3.1982148101329232e-20  2.6912011685029029e-19  1.2824555971114877e-18  4.1378949048216764e-19  8.7085090961215629e-20  2.9547827279759711e-20  9.9862408859368246e-21  2.6980897407174113e-21  -3.9883210643592249e-22  1.8518207943079084e-20  -8.0008771880434556e-20  5.6153002436129722e-18  3.0680193284081776e-16  8.3735205465664785e-15  8.1366212763333138e-14  3.7281792406370837e-13  2.0168317065132332e-12  1.3008621387763649e-11  8.7412738072926985e-11  5.9184179055472211e-10  4.0179579195317507e-09  2.7341134992734770e-08  1.8654522783651228e-07  1.2768870766760639e-06  8.7754338508431057e-06  6.0621077593321187e-05  4.2159525703106969e-04  2.9567467238948279e-03  2.0921926365682377e-02  1.4395363629380914e-01  5.9203236111797208e-01  9.1239507682200649e-01  9.8215795008653295e-01  9.9605699963050931e-01  9.9906636330867638e-01  9.9975816464062872e-01  9.9992865605804604e-01  9.9997459508114717e-01  9.9998834267720493e-01  9.9999276903036627e-01  9.9999383457231350e-01  2.7055466901582614e-13  2.6324254309564172e-13  2.4281103656874679e-13  2.1337680406891907e-13  1.8061310275827659e-13  1.5038726199167895e-13  1.2749475631075846e-13  1.1479313340360014e-13  1.1286320792855862e-13  1.2016718937037732e-13  1.3358279537249712e-13  1.4916168671287243e-13  1.6295674570920334e-13  1.7176529170292296e-13  1.7365027759446023e-13  1.6814592161779665e-13  1.5613108022178747e-13  1.3944104150784517e-13  1.2035158016943554e-13  1.0108356413669267e-13  8.3442308563556384e-14  6.8644332660056089e-14  5.7321862683123221e-14  4.9651078997613390e-14  4.5530455936652818e-14  4.4738661735974227e-14  4.7021612456414357e-14  5.2088612871891412e-14  5.9531096601051669e-14  6.8707262915534895e-14  7.8654707982177281e-14  8.8093788030885602e-14  9.5561537917525955e-14  9.9670309827800475e-14  9.9429052543481081e-14  9.4522115437297812e-14  8.5436533604939928e-14  7.3375129339271517e-14  5.9973539786258746e-14  4.6915897454889469e-14  3.5577241112819362e-14  2.6796182596373779e-14  2.0817574598208511e-14  1.7379576914688121e-14  1.5883378331146840e-14  1.5583465019070731e-14  1.5756619559088598e-14  1.5828431353030567e-14  1.5446061366770691e-14  1.4485828497723174e-14  1.2975715955219079e-14  1.0880073739704906e-14  7.6471167132953679e-15  2.9270555593628543e-15  3.3988111134315891e-16  1.5474666797411647e-17  3.4536690741059050e-19  2.5913297402874698e-21  -3.5507819260865041e-20  -8.1352510175120833e-20  -1.4482052902029325e-19  1.0527261039110297e-18  6.0887299253490154e-18  1.3090954027368906e-18  -8.5202159701302470e-20  -3.3814448254042551e-20  -7.4275708696062587e-21  5.2731749209662119e-23  8.4134637523564712e-22  2.8603371934348265e-20  -4.4303493070865644e-20  9.4501870924644276e-18  4.2056079003777123e-16  9.9744728385681749e-15  8.4273944241514600e-14  3.6415788690621203e-13  1.9477527375312564e-12  1.2521854305206222e-11  8.3922156501623594e-11  5.6660775950500377e-10  3.8342749087189508e-09  2.5993594137826499e-08  1.7656728850809553e-07  1.2021682613871367e-06  8.2079992263134110e-06  5.6233436257044150e-05  3.8683928635851908e-04  2.6724215173938638e-03  1.8469632504106145e-02  1.2395089992534623e-01  5.3999692497973095e-01  8.9532095052017835e-01  9.7810163396782801e-01  9.9492218037739033e-01  9.9870925109670627e-01  9.9963245875108730e-01  9.9987790466407755e-01  9.9995027156404992e-01  9.9997413970932736e-01  9.9998250227116625e-01  9.9998461781691605e-01  2.5067669710027319e-13  2.4400823465148192e-13  2.2536518600828369e-13  1.9847794754008974e-13  1.6849781746331502e-13  1.4076965416504224e-13  1.1968482412005157e-13  1.0788833651158069e-13  1.0595932699421731e-13  1.1254283979112381e-13  1.2482735869391441e-13  1.3923188525051949e-13  1.5216047270697408e-13  1.6068322881259941e-13  1.6301618393722260e-13  1.5871308840549736e-13  1.4855256775862447e-13  1.3418423624089087e-13  1.1765586008630402e-13  1.0095801707374570e-13  8.5692559835820532e-14  7.2915175533274135e-14  6.3144474360658622e-14  5.6487729442397487e-14  5.2813602074708390e-14  5.1904125604237010e-14  5.3537198574667932e-14  5.7480437201729103e-14  6.3410147985416414e-14  7.0797811990659939e-14  7.8823547684479674e-14  8.6375154175198202e-14  9.2168539298026126e-14  9.4982480408156820e-14  9.3949509677532348e-14  8.8806766413002161e-14  8.0008606551949482e-14  6.8645759187170442e-14  5.6188890956285130e-14  4.4142842728945160e-14  3.3726846793621875e-14  2.5673177137050631e-14  2.0179074948216041e-14  1.6988224890056045e-14  1.5545891190020956e-14  1.5171694314729640e-14  1.5212293999150444e-14  1.5154804321157303e-14  1.4690997749738379e-14  1.3723049895477148e-14  1.2296821459351315e-14  1.0432151786432658e-14  7.7904565627418429e-15  3.7826465999852521e-15  6.6515976890658266e-16  4.7677322799761135e-17  2.7180037171047512e-18  4.0605586463281297e-19  4.8356737246164110e-19  8.8699243285697841e-19  2.9003773279370526e-18  2.5266525719948357e-17  8.2149769901200009e-17  1.9736575420234082e-17  7.6980669026691272e-19  -1.9831243841323662e-20  -1.3001867047129320e-20  -2.7219818378537425e-21  1.4657271308666769e-21  8.8585536304409200e-20  5.0458798294665511e-19  3.4331900812539624e-17  9.7305609280679865e-16  1.5806662350109460e-14  9.0976800612712799e-14  3.3833691875232441e-13  1.7544958033088879e-12  1.1168946204234899e-11  7.4269042930052886e-11  4.9721622414682472e-10  3.3324443460108957e-09  2.2340057250792283e-08  1.4975914893373131e-07  1.0036190479596906e-06  6.7207223175713824e-06  4.4934537085016449e-05  2.9946315077604955e-04  1.9814624010273240e-03  1.2883039173385865e-02  8.0135911631512499e-02  3.9223671389792814e-01  8.2779306454774015e-01  9.6136061051765920e-01  9.9002171033919084e-01  9.9708257786769527e-01  9.9902486348742225e-01  9.9961498800713344e-01  9.9981574556004515e-01  9.9989114516854960e-01  9.9992030860596559e-01  9.9992809305914931e-01  2.2099615234317951e-13  2.1528362621762616e-13  1.9930093467286113e-13  1.7621502451721893e-13  1.5041211702186506e-13  1.2646479993350672e-13  1.0815806081550904e-13  9.7805938816878986e-14  9.5965000585045145e-14  1.0153295393629786e-13  1.1214768653953235e-13  1.2477205613333210e-13  1.3634153223314894e-13  1.4435132696553900e-13  1.4727117346149468e-13  1.4471138878011457e-13  1.3732484593388769e-13  1.2649902775105886e-13  1.1394375317912445e-13  1.0129410146470853e-13  8.9823468411804688e-14  8.0313523857252852e-14  7.3076139037283962e-14  6.8082497818211589e-14  6.5134096113218116e-14  6.4010384438875548e-14  6.4545555387228038e-14  6.6616474684017127e-14  7.0056756480679364e-14  7.4539578753601553e-14  7.9486396047788073e-14  8.4055167583856343e-14  8.7238497082632727e-14  8.8062873877855206e-14  8.5836228032294439e-14  8.0360328964245702e-14  7.2025101024656310e-14  6.1739910516712250e-14  5.0718747967769064e-14  4.0192823361967154e-14  3.1147080094378909e-14  2.4156936732722506e-14  1.9353059405462539e-14  1.6493352846972890e-14  1.5095060299386625e-14  1.4580173337009699e-14  1.4402765041546453e-14  1.4142392173002845e-14  1.3555643421214495e-14  1.2579312807247357e-14  1.1277361783717608e-14  9.7196269278328929e-15  7.7731437625981418e-15  4.9250818859031602e-15  1.6180128867655880e-15  2.2496984446107258e-16  2.1236920335788130e-17  4.8536226536781246e-19  -2.9228167440326388e-18  -3.7072730060053866e-18  1.5019835852960258e-17  2.7687393012982065e-16  6.0664334443453693e-16  1.5217407313570348e-16  7.8920925074972381e-18  9.3621906403271178e-19  6.2119646742397543e-20  -2.2935558985248688e-20  3.4515299529184359e-20  4.9135780704691081e-19  7.6190868424504025e-18  1.7583261918874652e-16  3.1214437664787993e-15  2.7835817420301417e-14  9.5913058265514889e-14  2.9736916704521332e-13  1.4746499171426592e-12  9.2335331475053096e-12  6.0596862560968198e-11  4.0003262499733919e-10  2.6386950559959081e-09  1.7365426234530688e-08  1.1390990210280317e-07  7.4384021410950035e-07  4.8267010383052127e-06  3.1034584757723303e-05  1.9680758982988647e-04  1.2209995567836727e-03  7.3069314479631518e-03  4.1174355721657986e-02  2.1082221223446801e-01  6.5001441378070213e-01  9.0964644008333306e-01  9.7398430451538787e-01  9.9143204987870170e-01  9.9671613408504589e-01  9.9852772675535029e-01  9.9921429641262638e-01  9.9949662489708824e-01  9.9961344247298212e-01  9.9964576702455710e-01  1.8582123351184358e-13  1.8123304650427099e-13  1.6838726021527493e-13  1.4980724415084173e-13  1.2899865571595491e-13  1.0963344292348458e-13  9.4772718515229783e-14  8.6313186267380284e-14  8.4747053842546246e-14  8.9232606846684106e-14  9.7911554748553805e-14  1.0838102239234465e-13  1.1821834309869029e-13  1.2545562252401588e-13  1.2891130410215642e-13  1.2831613868383593e-13  1.2422150302068841e-13  1.1773528224039623e-13  1.1017343869192931e-13  1.0272836751866032e-13  9.6236500084675750e-14  9.1087982856853941e-14  8.7275801803499955e-14  8.4543434201099071e-14  8.2567540131683058e-14  8.1109693794244060e-14  8.0088517447812845e-14  7.9555182060812783e-14  7.9590728491817490e-14  8.0171456188864109e-14  8.1060200221575364e-14  8.1773529856658051e-14  8.1649797570338599e-14  8.0006973571536555e-14  7.6343004636347758e-14  7.0508900159952293e-14  6.2788133051379500e-14  5.3848084487632643e-14  4.4578372004410124e-14  3.5874245639429170e-14  2.8439672140000987e-14  2.2667916440135554e-14  1.8619581480581286e-14  1.6081012800648157e-14  1.4666557760051216e-14  1.3929135313878184e-14  1.3455745843998764e-14  1.2936454802379969e-14  1.2201394926540786e-14  1.1221721050905217e-14  1.0070858056149082e-14  8.8436958032705941e-15  7.5338270597123696e-15  5.8908009954921814e-15  3.5339876915587833e-15  1.2616256634221219e-15  3.0991275589945121e-16  8.6143548507377602e-17  5.3164347910239882e-17  1.2359732518657947e-16  6.7347689270386357e-16  2.3825362889821988e-15  3.0670324615442745e-15  1.0791662307257426e-15  7.4310885914190252e-17  4.6847010390950055e-18  1.0846563402951534e-18  3.6184571090439181e-19  8.5040377755546995e-19  7.5601581952251087e-18  9.0723342388334335e-17  1.0814324970828463e-15  1.0350662808964822e-14  4.2870459166184730e-14  9.3715766055531083e-14  2.4681166338907723e-13  1.1578002512059519e-12  7.0787297397007232e-12  4.5599435738139143e-11  2.9520194759959380e-10  1.9046937280152908e-09  1.2219632486503643e-08  7.7804305167205238e-08  4.9047602803069941e-07  3.0509284747159940e-06  1.8634418626899701e-05  1.1095375851843669e-04  6.3744106130340158e-04  3.4853320895200123e-03  1.7939730619177426e-02  8.4393999533860745e-02  3.3775170349428257e-01  7.3732209666758719e-01  9.1905541577204575e-01  9.7047570171478970e-01  9.8755658687427150e-01  9.9387958904506002e-01  9.9646368907522220e-01  9.9760344809108903e-01  9.9809976095331443e-01  9.9824074456737300e-01  1.4974037920077814e-13  1.4629464557997888e-13  1.3664794473100723e-13  1.2269816763719381e-13  1.0708556742785134e-13  9.2579884215189848e-14  8.1492752569342737e-14  7.5256416881332216e-14  7.4241172173832516e-14  7.7813338156089323e-14  8.4585827495817579e-14  9.2787828611541194e-14  1.0067047409418072e-13  1.0686503425557013e-13  1.1062065486447157e-13  1.1187482493707237e-13  1.1115075808818173e-13  1.0932114615357946e-13  1.0731184752642424e-13  1.0583051671610157e-13  1.0519182994109356e-13  1.0527890162668486e-13  1.0563957840882908e-13  1.0567711036348653e-13  1.0486772148465682e-13  1.0293181055770561e-13  9.9904431584468458e-14  9.6088496656891926e-14  9.1916403029606453e-14  8.7776139954080666e-14  8.3866133479678393e-14  8.0128752474412156e-14  7.6282804777383135e-14  7.1940814480201468e-14  6.6767723114950314e-14  6.0623110555376675e-14  5.3635261532044701e-14  4.6181812833290189e-14  3.8788401297442625e-14  3.1987395085211348e-14  2.6189282700952751e-14  2.1606308722524116e-14  1.8240974218150132e-14  1.5926643889468445e-14  1.4395115222883652e-14  1.3347792351070301e-14  1.2516070107830737e-14  1.1704541167536523e-14  1.0814123653696846e-14  9.8426456726902767e-15  8.8609235159208797e-15  7.9642977096872633e-15  7.2035210755804389e-15  6.5035096566377840e-15  5.6096755532153451e-15  4.1760144653512164e-15  2.5769201103003975e-15  1.6353113297029342e-15  1.5594475510694976e-15  2.6749504071985227e-15  5.4973437994109722e-15  8.4105802138101558e-15  8.6779424434194189e-15  5.2637750163461365e-15  1.3414387489047092e-15  1.6937099456556522e-16  2.9166745334306656e-17  1.7002504322188278e-17  3.2063593250494443e-17  1.4740833536953301e-16  9.3995107775320090e-16  6.1135582134974884e-15  2.4405363233730230e-14  5.1336255460123555e-14  8.4133076220481175e-14  1.9423332705042801e-13  8.5125609914705049e-13  5.0372285091654575e-12  3.1666556546744892e-11  1.9994672421580735e-10  1.2545336125877111e-09  7.7947778983254771e-09  4.7821411481204212e-08  2.8865070234262831e-07  1.7059174865588490e-06  9.8075316966585905e-06  5.4388341033571027e-05  2.8797651960652909e-04  1.4414727998220611e-03  6.7168035021862461e-03  2.8872595952567928e-02  1.1158884787517213e-01  3.6236695676212388e-01  7.0678882578860547e-01  8.8488276974196345e-01  9.4843984423543770e-01  9.7285290025721416e-01  9.8344437453322331e-01  9.8836232653027489e-01  9.9057065555569546e-01  9.9120516692850336e-01  1.1672826763653332e-13  1.1431607707206978e-13  1.0757842307616570e-13  9.7884185487805437e-14  8.7129636157434163e-14  7.7287326155179637e-14  6.9975750523035016e-14  6.6156795724518326e-14  6.6017062293872376e-14  6.9034283996217326e-14  7.4189042622109637e-14  8.0259486382652678e-14  8.6128765364003339e-14  9.1037261504597873e-14  9.4724461461910811e-14  9.7429969872541964e-14  9.9757217881561829e-14  1.0243870105479698e-13  1.0606770535823491e-13  1.1087100339712056e-13  1.1658760984391598e-13  1.2249200273597117e-13  1.2756064349804180e-13  1.3073658093890603e-13  1.3121215498614225e-13  1.2863994056708492e-13  1.2320552526433078e-13  1.1554555133092086e-13  1.0654939439645985e-13  9.7118888078515811e-14  8.7964676925014715e-14  7.9493676427967332e-14  7.1804358201617227e-14  6.4770787884229533e-14  5.8172737552874187e-14  5.1821997773248427e-14  4.5644170417030259e-14  3.9696833815319420e-14  3.4130962272014499e-14  2.9122406526140243e-14  2.4806091806590485e-14  2.1236575797942216e-14  1.8381723337577905e-14  1.6141564942555556e-14  1.4378511884224458e-14  1.2947744371765239e-14  1.1722569437410033e-14  1.0613615685196033e-14  9.5811943233325963e-15  8.6387214078735527e-15  7.8442239459093124e-15  7.2779097465269965e-15  7.0045505315437989e-15  7.0274040209073027e-15  7.2299204119985882e-15  7.4596690870464213e-15  7.4335612964457042e-15  7.5240626497392339e-15  8.3474078013668957e-15  1.0434491221738523e-14  1.3410367837452613e-14  1.5695158760192633e-14  1.5792649074340205e-14  1.2879930589750222e-14  7.5305694373270526e-15  3.0284714103869353e-15  1.1571656066510187e-15  7.1888059292101600e-16  9.2019806310637351e-16  2.1378537981396947e-15  6.6187221815710441e-15  1.8089997088760858e-14  3.4464826028461894e-14  5.0222653344687915e-14  7.0769250192808391e-14  1.4633377564916576e-13  5.8896820224065096e-13  3.3332576246344905e-12  2.0314899235800642e-11  1.2443106015229005e-10  7.5502120882792060e-10  4.5162876158537870e-09  2.6526763934125226e-08  1.5228017905978049e-07  8.4939582684008079e-07  4.5701960417084154e-06  2.3520140945809855e-05  1.1475104135357529e-04  5.2503225213712578e-04  2.2336150974473896e-03  8.7258222325877783e-03  3.1172746849775630e-02  9.9950594891965172e-02  2.7959028413011761e-01  5.5634402294747187e-01  7.6460611081019869e-01  8.6911842408280915e-01  9.1832793816453062e-01  9.4158324513750646e-01  9.5192572227352690e-01  9.5486989220563656e-01  8.9526694139655416e-14  8.7954079162035183e-14  8.3596943726873395e-14  7.7437818828824962e-14  7.0815608830261881e-14  6.5080459781173385e-14  6.1273684795927136e-14  5.9918721815754683e-14  6.0966329043499055e-14  6.3890231956947129e-14  6.7893237902261231e-14  7.2163783596019628e-14  7.6117499558438583e-14  7.9564978431212882e-14  8.2764212611956138e-14  8.6342462643991156e-14  9.1103136434566473e-14  9.7761716648569779e-14  1.0667461244660125e-13  1.1763237661642909e-13  1.2978178962534254e-13  1.4171721723384643e-13  1.5173931865972852e-13  1.5822537203505544e-13  1.6000888444109844e-13  1.5665137613338138e-13  1.4852089840258001e-13  1.3666060547636367e-13  1.2250496867775917e-13  1.0754608661414805e-13  9.3051450757906063e-14  7.9896694132150844e-14  6.8526727657670031e-14  5.9018689386389789e-14  5.1200513164299457e-14  4.4778505179709908e-14  3.9439735284336580e-14  3.4913313023566130e-14  3.0992333019056291e-14  2.7529998231101912e-14  2.4426156784404590e-14  2.1615334219165402e-14  1.9059163336824064e-14  1.6740478456413900e-14  1.4655947516429541e-14  1.2807466781061243e-14  1.1195796491163035e-14  9.8201335052977065e-15  8.6843550365593933e-15  7.8064916488409212e-15  7.2246563743309955e-15  6.9917916846897533e-15  7.1602732684317691e-15  7.7647007270052923e-15  8.8635979722148724e-15  1.0360644125050597e-14  1.2436308109992734e-14  1.4548116189673104e-14  1.7033265516860936e-14  1.9857088668430607e-14  2.2223104951379557e-14  2.3789499161193528e-14  2.4111867134485574e-14  2.2267016589041930e-14  1.7962594764340937e-14  1.2849146786633398e-14  9.0040188318979963e-15  7.1096344248270276e-15  7.5789202566728526e-15  1.0766549352764748e-14  1.7172196246016137e-14  2.5961822059104751e-14  3.5063900747656835e-14  4.3848814462519236e-14  5.7212943694440285e-14  1.0728510442277642e-13  3.8709565284836044e-13  2.0584272597009361e-12  1.2060069618887005e-11  7.1256007171805436e-11  4.1599130616641105e-10  2.3831299488207020e-09  1.3330471473962496e-08  7.2413088556676859e-08  3.7957197674924265e-07  1.9059604486185343e-06  9.0962702578133435e-06  4.0904396114193983e-05  1.7195360979519809e-04  6.6985710859973353e-04  2.4051416718159431e-03  7.8860703156113966e-03  2.3585194880416483e-02  6.3083076262278673e-02  1.5093146302882471e-01  2.9725305907272476e-01  4.7195644962651967e-01  6.1698865054238494e-01  7.0450571992456967e-01  7.4687299329705470e-01  7.5931026903730670e-01  6.9395827550998327e-14  6.8431332736108671e-14  6.5817467047032139e-14  6.2304699723220726e-14  5.8881183844215407e-14  5.6476920094859680e-14  5.5703538940131275e-14  5.6707831188884128e-14  5.9174254381991334e-14  6.2465187953325681e-14  6.5852062618363627e-14  6.8771364847838129e-14  7.1036731445075671e-14  7.2949999379088813e-14  7.5277713386143763e-14  7.9090708097955704e-14  8.5495957994554838e-14  9.5315142390389448e-14  1.0878006447324573e-13  1.2532096974362241e-13  1.4351801144691085e-13