<?xml version="1.0"?>
<VTKFile type="UnstructuredGrid"  version="0.1"  >
<UnstructuredGrid>
<Piece  NumberOfPoints="20201" NumberOfCells="40000">
<Points>
<DataArray  type="Float64"  NumberOfComponents="3"  format="ascii">0 0 0  2 0 0  4 0 0  6 0 0  8 0 0  10 0 0  12 0 0  14 0 0  16 0 0  18 0 0  20 0 0  22 0 0  24 0 0  26 0 0  28 0 0  30 0 0  32 0 0  34 0 0  36 0 0  38 0 0  40 0 0  42 0 0  44 0 0  46 0 0  48 0 0  50 0 0  52 0 0  54 0 0  56 0 0  58 0 0  60 0 0  62 0 0  64 0 0  66 0 0  68 0 0  70 0 0  72 0 0  74 0 0  76 0 0  78 0 0  80 0 0  82 0 0  84 0 0  86 0 0  88 0 0  90 0 0  92 0 0  94 0 0  96 0 0  98 0 0  100 0 0  102 0 0  104 0 0  106 0 0  108 0 0  110 0 0  112 0 0  114 0 0  116 0 0  118 0 0  120 0 0  122 0 0  124 0 0  126 0 0  128 0 0  130 0 0  132 0 0  134 0 0  136 0 0  138 0 0  140 0 0  142 0 0  144 0 0  146 0 0  148 0 0  150 0 0  152 0 0  154 0 0  156 0 0  158 0 0  160 0 0  162 0 0  164 0 0  166 0 0  168 0 0  170 0 0  172 0 0  174 0 0  176 0 0  178 0 0  180 0 0  182 0 0  184 0 0  186 0 0  188 0 0  190 0 0  192 0 0  194 0 0  196 0 0  198 0 0  200 0 0  0 2 0  2 2 0  4 2 0  6 2 0  8 2 0  10 2 0  12 2 0  14 2 0  16 2 0  18 2 0  20 2 0  22 2 0  24 2 0  26 2 0  28 2 0  30 2 0  32 2 0  34 2 0  36 2 0  38 2 0  40 2 0  42 2 0  44 2 0  46 2 0  48 2 0  50 2 0  52 2 0  54 2 0  56 2 0  58 2 0  60 2 0  62 2 0  64 2 0  66 2 0  68 2 0  70 2 0  72 2 0  74 2 0  76 2 0  78 2 0  80 2 0  82 2 0  84 2 0  86 2 0  88 2 0  90 2 0  92 2 0  94 2 0  96 2 0  98 2 0  100 2 0  102 2 0  104 2 0  106 2 0  108 2 0  110 2 0  112 2 0  114 2 0  116 2 0  118 2 0  120 2 0  122 2 0  124 2 0  126 2 0  128 2 0  130 2 0  132 2 0  134 2 0  136 2 0  138 2 0  140 2 0  142 2 0  144 2 0  146 2 0  148 2 0  150 2 0  152 2 0  154 2 0  156 2 0  158 2 0  160 2 0  162 2 0  164 2 0  166 2 0  168 2 0  170 2 0  172 2 0  174 2 0  176 2 0  178 2 0  180 2 0  182 2 0  184 2 0  186 2 0  188 2 0  190 2 0  192 2 0  194 2 0  196 2 0  198 2 0  200 2 0  0 4 0  2 4 0  4 4 0  6 4 0  8 4 0  10 4 0  12 4 0  14 4 0  16 4 0  18 4 0  20 4 0  22 4 0  24 4 0  26 4 0  28 4 0  30 4 0  32 4 0  34 4 0  36 4 0  38 4 0  40 4 0  42 4 0  44 4 0  46 4 0  48 4 0  50 4 0  52 4 0  54 4 0  56 4 0  58 4 0  60 4 0  62 4 0  64 4 0  66 4 0  68 4 0  70 4 0  72 4 0  74 4 0  76 4 0  78 4 0  80 4 0  82 4 0  84 4 0  86 4 0  88 4 0  90 4 0  92 4 0  94 4 0  96 4 0  98 4 0  100 4 0  102 4 0  104 4 0  106 4 0  108 4 0  110 4 0  112 4 0  114 4 0  116 4 0  118 4 0  120 4 0  122 4 0  124 4 0  126 4 0  128 4 0  130 4 0  132 4 0  134 4 0  136 4 0  138 4 0  140 4 0  142 4 0  144 4 0  146 4 0  148 4 0  150 4 0  152 4 0  154 4 0  156 4 0  158 4 0  160 4 0  162 4 0  164 4 0  166 4 0  168 4 0  170 4 0  172 4 0  174 4 0  176 4 0  178 4 0  180 4 0  182 4 0  184 4 0  186 4 0  188 4 0  190 4 0  192 4 0  194 4 0  196 4 0  198 4 0  200 4 0  0 6 0  2 6 0  4 6 0  6 6 0  8 6 0  10 6 0  12 6 0  14 6 0  16 6 0  18 6 0  20 6 0  22 6 0  24 6 0  26 6 0  28 6 0  30 6 0  32 6 0  34 6 0  36 6 0  38 6 0  40 6 0  42 6 0  44 6 0  46 6 0  48 6 0  50 6 0  52 6 0  54 6 0  56 6 0  58 6 0  60 6 0  62 6 0  64 6 0  66 6 0  68 6 0  70 6 0  72 6 0  74 6 0  76 6 0  78 6 0  80 6 0  82 6 0  84 6 0  86 6 0  88 6 0  90 6 0  92 6 0  94 6 0  96 6 0  98 6 0  100 6 0  102 6 0  104 6 0  106 6 0  108 6 0  110 6 0  112 6 0  114 6 0  116 6 0  118 6 0  120 6 0  122 6 0  124 6 0  126 6 0  128 6 0  130 6 0  132 6 0  134 6 0  136 6 0  138 6 0  140 6 0  142 6 0  144 6 0  146 6 0  148 6 0  150 6 0  152 6 0  154 6 0  156 6 0  158 6 0  160 6 0  162 6 0  164 6 0  166 6 0  168 6 0  170 6 0  172 6 0  174 6 0  176 6 0  178 6 0  180 6 0  182 6 0  184 6 0  186 6 0  188 6 0  190 6 0  192 6 0  194 6 0  196 6 0  198 6 0  200 6 0  0 8 0  2 8 0  4 8 0  6 8 0  8 8 0  10 8 0  12 8 0  14 8 0  16 8 0  18 8 0  20 8 0  22 8 0  24 8 0  26 8 0  28 8 0  30 8 0  32 8 0  34 8 0  36 8 0  38 8 0  40 8 0  42 8 0  44 8 0  46 8 0  48 8 0  50 8 0  52 8 0  54 8 0  56 8 0  58 8 0  60 8 0  62 8 0  64 8 0  66 8 0  68 8 0  70 8 0  72 8 0  74 8 0  76 8 0  78 8 0  80 8 0  82 8 0  84 8 0  86 8 0  88 8 0  90 8 0  92 8 0  94 8 0  96 8 0  98 8 0  100 8 0  102 8 0  104 8 0  106 8 0  108 8 0  110 8 0  112 8 0  114 8 0  116 8 0  118 8 0  120 8 0  122 8 0  124 8 0  126 8 0  128 8 0  130 8 0  132 8 0  134 8 0  136 8 0  138 8 0  140 8 0  142 8 0  144 8 0  146 8 0  148 8 0  150 8 0  152 8 0  154 8 0  156 8 0  158 8 0  160 8 0  162 8 0  164 8 0  166 8 0  168 8 0  170 8 0  172 8 0  174 8 0  176 8 0  178 8 0  180 8 0  182 8 0  184 8 0  186 8 0  188 8 0  190 8 0  192 8 0  194 8 0  196 8 0  198 8 0  200 8 0  0 10 0  2 10 0  4 10 0  6 10 0  8 10 0  10 10 0  12 10 0  14 10 0  16 10 0  18 10 0  20 10 0  22 10 0  24 10 0  26 10 0  28 10 0  30 10 0  32 10 0  34 10 0  36 10 0  38 10 0  40 10 0  42 10 0  44 10 0  46 10 0  48 10 0  50 10 0  52 10 0  54 10 0  56 10 0  58 10 0  60 10 0  62 10 0  64 10 0  66 10 0  68 10 0  70 10 0  72 10 0  74 10 0  76 10 0  78 10 0  80 10 0  82 10 0  84 10 0  86 10 0  88 10 0  90 10 0  92 10 0  94 10 0  96 10 0  98 10 0  100 10 0  102 10 0  104 10 0  106 10 0  108 10 0  110 10 0  112 10 0  114 10 0  116 10 0  118 10 0  120 10 0  122 10 0  124 10 0  126 10 0  128 10 0  130 10 0  132 10 0  134 10 0  136 10 0  138 10 0  140 10 0  142 10 0  144 10 0  146 10 0  148 10 0  150 10 0  152 10 0  154 10 0  156 10 0  158 10 0  160 10 0  162 10 0  164 10 0  166 10 0  168 10 0  170 10 0  172 10 0  174 10 0  176 10 0  178 10 0  180 10 0  182 10 0  184 10 0  186 10 0  188 10 0  190 10 0  192 10 0  194 10 0  196 10 0  198 10 0  200 10 0  0 12 0  2 12 0  4 12 0  6 12 0  8 12 0  10 12 0  12 12 0  14 12 0  16 12 0  18 12 0  20 12 0  22 12 0  24 12 0  26 12 0  28 12 0  30 12 0  32 12 0  34 12 0  36 12 0  38 12 0  40 12 0  42 12 0  44 12 0  46 12 0  48 12 0  50 12 0  52 12 0  54 12 0  56 12 0  58 12 0  60 12 0  62 12 0  64 12 0  66 12 0  68 12 0  70 12 0  72 12 0  74 12 0  76 12 0  78 12 0  80 12 0  82 12 0  84 12 0  86 12 0  88 12 0  90 12 0  92 12 0  94 12 0  96 12 0  98 12 0  100 12 0  102 12 0  104 12 0  106 12 0  108 12 0  110 12 0  112 12 0  114 12 0  116 12 0  118 12 0  120 12 0  122 12 0  124 12 0  126 12 0  128 12 0  130 12 0  132 12 0  134 12 0  136 12 0  138 12 0  140 12 0  142 12 0  144 12 0  146 12 0  148 12 0  150 12 0  152 12 0  154 12 0  156 12 0  158 12 0  160 12 0  162 12 0  164 12 0  166 12 0  168 12 0  170 12 0  172 12 0  174 12 0  176 12 0  178 12 0  180 12 0  182 12 0  184 12 0  186 12 0  188 12 0  190 12 0  192 12 0  194 12 0  196 12 0  198 12 0  200 12 0  0 14 0  2 14 0  4 14 0  6 14 0  8 14 0  10 14 0  12 14 0  14 14 0  16 14 0  18 14 0  20 14 0  22 14 0  24 14 0  26 14 0  28 14 0  30 14 0  32 14 0  34 14 0  36 14 0  38 14 0  40 14 0  42 14 0  44 14 0  46 14 0  48 14 0  50 14 0  52 14 0  54 14 0  56 14 0  58 14 0  60 14 0  62 14 0  64 14 0  66 14 0  68 14 0  70 14 0  72 14 0  74 14 0  76 14 0  78 14 0  80 14 0  82 14 0  84 14 0  86 14 0  88 14 0  90 14 0  92 14 0  94 14 0  96 14 0  98 14 0  100 14 0  102 14 0  104 14 0  106 14 0  108 14 0  110 14 0  112 14 0  114 14 0  116 14 0  118 14 0  120 14 0  122 14 0  124 14 0  126 14 0  128 14 0  130 14 0  132 14 0  134 14 0  136 14 0  138 14 0  140 14 0  142 14 0  144 14 0  146 14 0  148 14 0  150 14 0  152 14 0  154 14 0  156 14 0  158 14 0  160 14 0  162 14 0  164 14 0  166 14 0  168 14 0  170 14 0  172 14 0  174 14 0  176 14 0  178 14 0  180 14 0  182 14 0  184 14 0  186 14 0  188 14 0  190 14 0  192 14 0  194 14 0  196 14 0  198 14 0  200 14 0  0 16 0  2 16 0  4 16 0  6 16 0  8 16 0  10 16 0  12 16 0  14 16 0  16 16 0  18 16 0  20 16 0  22 16 0  24 16 0  26 16 0  28 16 0  30 16 0  32 16 0  34 16 0  36 16 0  38 16 0  40 16 0  42 16 0  44 16 0  46 16 0  48 16 0  50 16 0  52 16 0  54 16 0  56 16 0  58 16 0  60 16 0  62 16 0  64 16 0  66 16 0  68 16 0  70 16 0  72 16 0  74 16 0  76 16 0  78 16 0  80 16 0  82 16 0  84 16 0  86 16 0  88 16 0  90 16 0  92 16 0  94 16 0  96 16 0  98 16 0  100 16 0  102 16 0  104 16 0  106 16 0  108 16 0  110 16 0  112 16 0  114 16 0  116 16 0  118 16 0  120 16 0  122 16 0  124 16 0  126 16 0  128 16 0  130 16 0  132 16 0  134 16 0  136 16 0  138 16 0  140 16 0  142 16 0  144 16 0  146 16 0  148 16 0  150 16 0  152 16 0  154 16 0  156 16 0  158 16 0  160 16 0  162 16 0  164 16 0  166 16 0  168 16 0  170 16 0  172 16 0  174 16 0  176 16 0  178 16 0  180 16 0  182 16 0  184 16 0  186 16 0  188 16 0  190 16 0  192 16 0  194 16 0  196 16 0  198 16 0  200 16 0  0 18 0  2 18 0  4 18 0  6 18 0  8 18 0  10 18 0  12 18 0  14 18 0  16 18 0  18 18 0  20 18 0  22 18 0  24 18 0  26 18 0  28 18 0  30 18 0  32 18 0  34 18 0  36 18 0  38 18 0  40 18 0  42 18 0  44 18 0  46 18 0  48 18 0  50 18 0  52 18 0  54 18 0  56 18 0  58 18 0  60 18 0  62 18 0  64 18 0  66 18 0  68 18 0  70 18 0  72 18 0  74 18 0  76 18 0  78 18 0  80 18 0  82 18 0  84 18 0  86 18 0  88 18 0  90 18 0  92 18 0  94 18 0  96 18 0  98 18 0  100 18 0  102 18 0  104 18 0  106 18 0  108 18 0  110 18 0  112 18 0  114 18 0  116 18 0  118 18 0  120 18 0  122 18 0  124 18 0  126 18 0  128 18 0  130 18 0  132 18 0  134 18 0  136 18 0  138 18 0  140 18 0  142 18 0  144 18 0  146 18 0  148 18 0  150 18 0  152 18 0  154 18 0  156 18 0  158 18 0  160 18 0  162 18 0  164 18 0  166 18 0  168 18 0  170 18 0  172 18 0  174 18 0  176 18 0  178 18 0  180 18 0  182 18 0  184 18 0  186 18 0  188 18 0  190 18 0  192 18 0  194 18 0  196 18 0  198 18 0  200 18 0  0 20 0  2 20 0  4 20 0  6 20 0  8 20 0  10 20 0  12 20 0  14 20 0  16 20 0  18 20 0  20 20 0  22 20 0  24 20 0  26 20 0  28 20 0  30 20 0  32 20 0  34 20 0  36 20 0  38 20 0  40 20 0  42 20 0  44 20 0  46 20 0  48 20 0  50 20 0  52 20 0  54 20 0  56 20 0  58 20 0  60 20 0  62 20 0  64 20 0  66 20 0  68 20 0  70 20 0  72 20 0  74 20 0  76 20 0  78 20 0  80 20 0  82 20 0  84 20 0  86 20 0  88 20 0  90 20 0  92 20 0  94 20 0  96 20 0  98 20 0  100 20 0  102 20 0  104 20 0  106 20 0  108 20 0  110 20 0  112 20 0  114 20 0  116 20 0  118 20 0  120 20 0  122 20 0  124 20 0  126 20 0  128 20 0  130 20 0  132 20 0  134 20 0  136 20 0  138 20 0  140 20 0  142 20 0  144 20 0  146 20 0  148 20 0  150 20 0  152 20 0  154 20 0  156 20 0
[...]
<PointData  Scalars="f_271-3"> 
<DataArray  type="Float64"  Name="f_271-3"  format="ascii">1.4628142535120876e-08  1.4056594868106392e-08  1.2483280545208885e-08  1.0282929737397741e-08  7.9407258779782651e-09  5.9130641809448229e-09  4.5252197438376547e-09  3.9277583501583823e-09  4.1018828317318262e-09  4.8916029900039087e-09  6.0469824725425416e-09  7.2738134070138567e-09  8.2888218292889436e-09  8.8742504086266477e-09  8.9185096822782257e-09  8.4292272163652475e-09  7.5143304204809388e-09  6.3401427493497558e-09  5.0836402295507268e-09  3.8945086974502249e-09  2.8747113591937319e-09  2.0752880421971085e-09  1.5056675248231687e-09  1.1495544258845208e-09  9.8176860365880636e-10  9.8137370038613125e-10  1.1379534711388157e-09  1.4498811858107058e-09  1.9154819118780310e-09  2.5197781845966397e-09  3.2210621379441870e-09  3.9429056125869533e-09  4.5776932485744009e-09  5.0056028362160569e-09  5.1268015622458761e-09  4.8961200271702914e-09  4.3441269080155379e-09  3.5721121522188155e-09  2.7210063491650480e-09  1.9281597569045821e-09  1.2915600384631925e-09  8.5478870721161566e-10  6.1298670892679953e-10  5.2991523821538167e-10  5.5496590416615299e-10  6.3486656014530191e-10  7.2109312910764461e-10  7.7583659067962213e-10  7.7731604214278790e-10  7.2275714479562217e-10  6.2694783090989189e-10  5.1583176927939478e-10  4.1626372810473001e-10  3.4230193384392093e-10  2.7224848985100591e-10  1.4313195243989950e-10  2.8502880067885395e-11  2.9434045723699719e-12  2.4987848874721815e-13  3.3233127743024798e-14  5.6154600060245480e-15  4.9286689665510758e-14  3.6097946672927268e-13  2.2812287129742435e-13  2.2872086007531149e-14  8.4772267173469419e-16  6.4784822447927301e-17  3.9514780383647998e-15  6.1923045530575971e-14  9.9627121667875979e-13  2.3196933836735888e-11  4.0165135099584752e-10  2.7965400414606989e-09  5.9108344948930607e-09  6.9046953409314966e-09  6.5989088767540484e-09  5.7430786245106742e-09  4.6818430232053805e-09  3.6206669818200875e-09  2.7147298961677224e-09  2.2372984077685511e-09  3.6177733983335928e-09  1.6419288169496774e-08  1.0583452900537504e-07  7.1797640642119064e-07  4.9204508294451607e-06  3.3941163862944087e-05  2.3588699039830930e-04  1.6548115455617110e-03  1.1727508945186196e-02  8.2673589859992597e-02  4.2632007956838019e-01  8.5681045378598231e-01  9.7107015894731319e-01  9.9328189427297542e-01  9.9824155598320874e-01  9.9946584003570926e-01  9.9980112566891355e-01  9.9990399331552182e-01  9.9993810326422672e-01  9.9994648444858480e-01  1.4138652784754334e-08  1.3590679809975416e-08  1.2081259981200978e-08  9.9674681556608059e-09  7.7128255393099785e-09  5.7551577056115874e-09  4.4086149256451902e-09  3.8209634746801734e-09  3.9774850052514411e-09  4.7308959480366763e-09  5.8423898882765517e-09  7.0292674778098003e-09  8.0181524526221369e-09  8.5977819920962118e-09  8.6585239414814720e-09  8.2054222394591492e-09  7.3404734082111070e-09  6.2226324284286591e-09  5.0219417792271968e-09  3.8828428335045970e-09  2.9042043834754403e-09  2.1359411462511984e-09  1.5877722148159222e-09  1.2444250139676995e-09  1.0818445774059616e-09  1.0798692890515521e-09  1.2283034884467490e-09  1.5252561502054036e-09  1.9686323066441173e-09  2.5434208480900864e-09  3.2089179576828158e-09  3.8912939498677199e-09  4.4872776537067335e-09  4.8825744445736470e-09  4.9827203922777703e-09  4.7460253506691864e-09  4.2033111667630033e-09  3.4526956817824366e-09  2.6296285329843088e-09  1.8655467323050618e-09  1.2537968366728185e-09  8.3541948709613117e-10  6.0497803562162204e-10  5.2695656107345636e-10  5.5212084042045246e-10  6.2884820241820555e-10  7.1036321654786469e-10  7.6053580353191754e-10  7.5894135531294632e-10  7.0356905703196226e-10  6.0923167540126334e-10  5.0124700670437143e-10  4.0557818656640508e-10  3.3608810937189176e-10  2.7446366199074360e-10  1.5909924059058245e-10  3.7503870389440559e-11  4.6077072967360952e-12  4.7438598158765868e-13  6.9672363640908179e-14  3.5297257773708042e-14  3.0285181630109232e-13  2.1821095628294239e-12  1.1627119308110154e-12  9.4459918234663625e-14  3.7181629777580643e-15  2.2237295067310342e-15  1.1291075616914142e-14  1.1468162491675816e-13  1.6229897104480183e-12  3.3088017791485822e-11  4.9661448506080039e-10  3.0003910576098198e-09  5.8550610346985042e-09  6.7166232015065959e-09  6.4079123900426641e-09  5.5881577600734352e-09  4.5743722103092956e-09  3.5610751482448042e-09  2.6966858181556926e-09  2.2423896440164894e-09  3.5577130657520433e-09  1.5697982438931094e-08  1.0008015417755324e-07  6.7437913732257701e-07  4.5885503322304915e-06  3.1369992483855853e-05  2.1546742077432497e-04  1.4870641219136840e-03  1.0279221738148478e-02  6.9672859649555052e-02  3.7037272066393473e-01  8.2442260710758719e-01  9.6250519549588143e-01  9.9062883918640199e-01  9.9728147970613679e-01  9.9906435916930625e-01  9.9960030555474522e-01  9.9978257648606295e-01  9.9984838691370237e-01  9.9986535093002282e-01  1.2767939577628265e-08  1.2285234471974870e-08  1.0953006380003742e-08  9.0800857593780718e-09  7.0704554252471092e-09  5.3103739665533789e-09  4.0824529873708399e-09  3.5257031005478009e-09  3.6358070840976777e-09  4.2890736109376230e-09  5.2774829998301724e-09  6.3506326933588345e-09  7.2633301776313401e-09  7.8232491358804000e-09  7.9271140431780789e-09  7.5735556995278862e-09  6.8485591250969004e-09  5.8906963792501797e-09  4.8504609021684293e-09  3.8571335099838605e-09  3.0001957958389436e-09  2.3255579546440895e-09  1.8428897910671024e-09  1.5390400389192454e-09  1.3926013891229198e-09  1.3854062238956987e-09  1.5080586971638496e-09  1.7584298748680832e-09  2.1339779500248864e-09  2.6204287825892587e-09  3.1806839880656989e-09  3.7488063802560918e-09  4.2340068350750443e-09  4.5374249227499626e-09  4.5792624762259856e-09  4.3270223950604183e-09  3.8116950811262068e-09  3.1221319377792391e-09  2.3782505231515345e-09  1.6948942706445008e-09  1.1524468977303925e-09  7.8488839663141312e-10  5.8524528191356901e-10  5.2016143996820421e-10  5.4444781547150484e-10  6.1132011948273804e-10  6.7907083140561684e-10  7.1633126689326680e-10  7.0640172300161001e-10  6.4923369871209569e-10  5.5949775001494518e-10  4.6058070379731316e-10  3.7581740182955549e-10  3.1812597066539417e-10  2.7632461527486552e-10  2.0014357212359835e-10  7.5614611029568609e-11  1.4620327894166224e-11  2.5031264331648232e-12  5.9385587375012999e-13  5.5246429490691054e-13  5.1575206270052441e-12  2.0507487794437769e-11  9.8443408807362158e-12  8.6823634972506348e-13  6.9738914824946276e-14  2.2257196203534313e-14  7.6352106434509191e-14  4.8842933057807306e-13  6.1695920951989970e-12  8.3514355321453247e-11  8.5806448439572890e-10  3.4677135031248076e-09  5.6032447673185110e-09  6.1707067305230716e-09  5.8681016198581813e-09  5.1520669820414385e-09  4.2732087300285347e-09  3.3973212243397651e-09  2.6542684694625392e-09  2.2717584604543970e-09  3.4188962523667245e-09  1.3783227139456844e-08  8.4721236756098551e-08  5.5908439384598570e-07  3.7230991950358995e-06  2.4788531961483202e-05  1.6449681590156517e-04  1.0830717312087970e-03  6.9976587063750708e-03  4.3058584997220456e-02  2.3386741365589886e-01  6.9242623835447115e-01  9.2433290679988434e-01  9.7816635784905714e-01  9.9257602709792148e-01  9.9694757940388312e-01  9.9847613363289489e-01  9.9906758188311662e-01  9.9930224749896646e-01  9.9936577753824385e-01  1.0778621203314561e-08  1.0388539066619791e-08  9.3086171232837342e-09  7.7810610593604907e-09  6.1266666050788737e-09  4.6581486886357606e-09  3.6112960417172421e-09  3.1097860373163250e-09  3.1613929921036674e-09  3.6742683636471246e-09  4.4838339648043854e-09  5.3866459276390467e-09  6.1797202674341738e-09  6.7004317511031412e-09  6.8574060066182235e-09  6.6425508644478834e-09  6.1205648579438515e-09  5.4013551529935970e-09  4.6067678142996449e-09  3.8426989918062806e-09  3.1827729319281503e-09  2.6643486347439024e-09  2.2941843836865592e-09  2.0597168275749903e-09  1.9416802294099827e-09  1.9242152402084637e-09  1.9997215066889694e-09  2.1674282220495486e-09  2.4265646400340934e-09  2.7666117161794323e-09  3.1581934506860472e-09  3.5486977412587880e-09  3.8663700324895445e-09  4.0345713680944279e-09  3.9936523974368205e-09  3.7227921656797098e-09  3.2515812337153065e-09  2.6542243535476144e-09  2.0274788637991516e-09  1.4619391557952255e-09  1.0192460514416515e-09  7.2330941701972839e-10  5.6521477607959966e-10  5.1520247422480604e-10  5.3458058674186892e-10  5.8424541158920312e-10  6.3032951448588145e-10  6.4851614077894773e-10  6.2726691885574583e-10  5.6885466080673533e-10  4.8713565584490949e-10  4.0220646717074792e-10  3.3327624789652034e-10  2.9117382070941341e-10  2.7059118826825181e-10  2.4159711402799882e-10  1.6110990908121132e-10  6.5555251102524419e-11  2.2687104954264325e-11  1.2339139158661953e-11  1.8947379185847834e-11  5.7980655819820573e-11  1.0512884487603476e-10  6.1997528541575452e-11  1.0736728032259249e-11  1.4071848488294066e-12  5.5569353987535884e-13  9.4392173234141965e-13  4.5728937248383581e-12  3.4141699137013178e-11  2.8963721266138261e-10  1.5988847626436689e-09  3.7708369823422727e-09  5.0376226355413972e-09  5.3351916615754019e-09  5.0715535535311247e-09  4.5128998885467976e-09  3.8361696951928174e-09  3.1703040573930431e-09  2.6193482926724391e-09  2.3633957542768474e-09  3.3093702358759707e-09  1.1306528665820535e-08  6.4482580863890737e-08  4.0974793743487387e-07  2.6327054694974519e-06  1.6793171972007327e-05  1.0551881355293826e-04  6.4674952654800578e-04  3.8025998154676000e-03  2.0975930627448135e-02  1.0447781205959407e-01  4.0643672872369752e-01  7.8755120368383114e-01  9.3310629406528556e-01  9.7396503660487144e-01  9.8798798482772288e-01  9.9337123884614698e-01  9.9563319074843948e-01  9.9658768625897609e-01  9.9685504082284948e-01  8.5196235301198599e-09  8.2312965496323617e-09  7.4300018594085102e-09  6.2879290004857456e-09  5.0368707750180049e-09  3.9083751931446371e-09  3.0834525276877792e-09  2.6639406379709108e-09  2.6660470669743697e-09  3.0296300660504315e-09  3.6368936790494910e-09  4.3375102124609655e-09  4.9785085060710226e-09  5.4349200226234713e-09  5.6338791399772656e-09  5.5646979703862014e-09  5.2719250848254106e-09  4.8350842789138596e-09  4.3433834258840813e-09  3.8738061525423321e-09  3.4777283295976101e-09  3.1772882693265776e-09  2.9699970400552754e-09  2.8386170668898934e-09  2.7626324011686941e-09  2.7275736562399274e-09  2.7293316706706949e-09  2.7724011384561213e-09  2.8631326937535761e-09  3.0007196078685885e-09  3.1693780145709435e-09  3.3350653251621546e-09  3.4491976967226299e-09  3.4599054661248526e-09  3.3282645831925784e-09  3.0436354641231133e-09  2.6309581569571448e-09  2.1454853809838427e-09  1.6563548064178804e-09  1.2261452927525376e-09  8.9526374331973789e-10  6.7655942138363730e-10  5.5958769415225464e-10  5.1967375094179619e-10  5.2673656658398510e-10  5.5158355120426099e-10  5.7004353577828809e-10  5.6595642471698220e-10  5.3313317495953720e-10  4.7553544048021603e-10  4.0507511995859065e-10  3.3736199770800616e-10  2.8656381993530145e-10  2.6063127105169437e-10  2.5750171632309641e-10  2.6246497503988905e-10  2.4938305498179570e-10  2.0054734035707545e-10  1.4585186039436423e-10  1.2915314433531970e-10  1.6680540063623641e-10  2.4393716763910876e-10  2.8955406758377465e-10  2.3304683078361997e-10  1.0218329882789108e-10  3.0974386484356922e-11  1.4710994988048868e-11  1.7712222397802171e-11  4.8402334637409824e-11  2.0968070874622138e-10  8.8728667121844521e-10  2.2931689652765076e-09  3.5535983142867501e-09  4.1949679952873629e-09  4.3345998768135065e-09  4.1472576402793590e-09  3.7771531116722121e-09  3.3419413345654427e-09  2.9356151111498437e-09  2.6349982725245342e-09  2.5676729277116078e-09  3.3640826099289833e-09  9.0076488743080060e-09  4.4641036736602033e-08  2.6647768111475967e-07  1.6276573985107896e-06  9.8029295145775756e-06  5.7406696228553256e-05  3.2247344733741368e-04  1.7098216225904376e-03  8.3805368886741612e-03  3.7042799127943948e-02  1.4440377477741925e-01  4.3283349366585028e-01  7.4944257574067630e-01  8.9506507952948189e-01  9.4797816375832078e-01  9.6930547751757579e-01  9.7877569992521463e-01  9.8298634738510637e-01  9.8420302590833819e-01  6.3325584674785358e-09  6.1384747788839030e-09  5.5971609598235966e-09  4.8202759833964227e-09  3.9606632189615555e-09  3.1746737565484821e-09  2.5885064391091456e-09  2.2770897786078694e-09  2.2574391640941569e-09  2.4934869237701451e-09  2.9084753193070796e-09  3.4024899312343659e-09  3.8734123301374993e-09  4.2381772116710981e-09  4.4492608053703405e-09  4.5013574249163037e-09  4.4262182020509309e-09  4.2780705826499103e-09  4.1151912747901130e-09  3.9835451166185896e-09  3.9065517080276928e-09  3.8826328095784813e-09  3.8902044224219004e-09  3.8981361083808260e-09  3.8782050156235815e-09  3.8152303083477648e-09  3.7112660402984313e-09  3.5826039758228107e-09  3.4512923369003773e-09  3.3348514357000870e-09  3.2381013805723256e-09  3.1499188822419252e-09  3.0461156617267250e-09  2.8978393248890715e-09  2.6829462330223683e-09  2.3961203120637326e-09  2.0532467425398606e-09  1.6876167880170495e-09  1.3393658806044820e-09  1.0429496904852203e-09  8.1817530226319864e-10  6.6785242049964837e-10  5.8131635810667274e-10  5.4054949142778649e-10  5.2573601390397568e-10  5.1895414812675234e-10  5.0638973339464344e-10  4.7980067992053686e-10  4.3733699809714088e-10  3.8327331565175519e-10  3.2634386310964284e-10  2.7698450565520130e-10  2.4429120250751134e-10  2.3350656535861418e-10  2.4444937785992168e-10  2.7102015494274652e-10  3.0238856888851810e-10  3.2776750318063614e-10  3.4711502783163756e-10  3.7820191040833867e-10  4.3408672027929098e-10  4.9754673255824352e-10  5.3485106235889818e-10  5.1301870429348588e-10  4.0676483987816348e-10  2.6345600839313512e-10  1.8164750099368177e-10  1.9261879085798781e-10  3.3726443566719849e-10  7.5495449454340553e-10  1.5063527510173818e-09  2.3235158123345804e-09  2.9227175981638308e-09  3.2414820340346040e-09  3.3193740718694092e-09  3.2292520032701076e-09  3.0528832199114141e-09  2.8699913519852140e-09  2.7487717155825454e-09  2.7431563991699039e-09  2.9319126745794106e-09  3.7001578010226449e-09  7.4640148221833359e-09  2.8952583913018677e-08  1.5518273955621048e-07  8.8485738546867539e-07  4.9695832642787900e-06  2.6838220710302698e-05  1.3724005847426144e-04  6.5407028602382949e-04  2.8579582608990678e-03  1.1309267151189429e-02  3.9774971375209030e-02  1.2364807758048418e-01  3.1764836057081686e-01  5.7584966000814808e-01  7.5480232415386150e-01  8.4570158752878100e-01  8.9078123326888692e-01  9.1200401618847282e-01  9.1823217831135473e-01  4.4776278013466410e-09  4.3588941446376574e-09  4.0276859850464371e-09  3.5524256974519460e-09  3.0273310974919550e-09  2.5492984055920253e-09  2.1965362112408634e-09  2.0147078020348375e-09  2.0125875943267963e-09  2.1658294955956061e-09  2.4262223697114632e-09  2.7342502356454321e-09  3.0331237766106207e-09  3.2818387845228518e-09  3.4640354311292968e-09  3.5898537371112935e-09  3.6900175518018311e-09  3.8040210024796077e-09  3.9660636898412115e-09  4.1926461147079235e-09  4.4749972416561683e-09  4.7785097286290628e-09  5.0501120188918687e-09  5.2324207134478369e-09  5.2806454958430400e-09  5.1761004601602819e-09  4.9308509274079853e-09  4.5818647999180413e-09  4.1778410180393600e-09  3.7646129522610246e-09  3.3744157517406547e-09  3.0215971989410363e-09  2.7046137379594914e-09  2.4124519443371315e-09  2.1327969776873607e-09  1.8589955733804849e-09  1.5933142855984525e-09  1.3454869721956041e-09  1.1277124411792673e-09  9.4893911658515487e-10  8.1134004301599955e-10  7.1027266819709903e-10  6.3688798553495350e-10  5.8137749349347158e-10  5.3522298530190086e-10  4.9207735957351472e-10  4.4787989243852005e-10  4.0088738233621247e-10  3.5177809449493132e-10  3.0353724395005008e-10  2.6084862834575213e-10  2.2906535271722925e-10  2.1311333480039653e-10  2.1663514255107717e-10  2.4141255408245343e-10  2.8696110391599224e-10  3.5040856319772006e-10  4.2717521799845543e-10  5.1267367157714780e-10  6.0310320267817477e-10  6.9225545351914029e-10  7.6788460934794242e-10  8.1460869941833543e-10  8.1899516503282566e-10  7.7431821330957337e-10  6.9337992526992921e-10  6.2900417655484735e-10  6.5282123949864487e-10  8.1669650770819948e-10  1.1285993238985058e-09  1.5219563327236129e-09  1.8963028417826462e-09  2.1817294206027640e-09  2.3522084346848999e-09  2.4202821798345321e-09  2.4259211956481054e-09  2.4259039863675586e-09  2.4824563087976430e-09  2.6510926707924129e-09  2.9717929406494824e-09  3.4845170058517500e-09  4.3833002178560518e-09  6.9505524471843757e-09  1.8834899529094830e-08  8.2840138044893504e-08  4.2751103038857417e-07  2.2119397702995286e-06  1.0951665353138422e-05  5.0886925992797699e-05  2.1879243105864680e-04  8.6094176386308059e-04  3.0641538499879342e-03  9.8151890290125911e-03  2.8005547434049437e-02  7.0629528615495249e-02  1.5537997366766224e-01  2.7794822729590291e-01  4.1035774162184324e-01  5.2095315455796076e-01  5.8875601924429688e-01  6.1070863673426401e-01  3.0984487709439887e-09  3.0311405188865808e-09  2.8458041910058058e-09  2.5871828265533954e-09  2.3149348707564004e-09  2.0869355172110606e-09  1.9448089664659360e-09  1.9058778818107527e-09  1.9627570939816984e-09  2.0892159507837056e-09  2.2498235820283207e-09  2.4109544434668841e-09  2.5509525786231393e-09  2.6672156541484945e-09  2.7781834508233850e-09  2.9192915015307720e-09  3.1336402332444959e-09  3.4595247085338635e-09  3.9174683792542540e-09  4.4993232142186209e-09  5.1621024922303196e-09  5.8295905762447899e-09  6.4042349754306193e-09  6.7888290422616200e-09  6.9123114588318026e-09  6.7498779534530490e-09  6.3285668609175955e-09  5.7161836849377338e-09  4.9995619588927882e-09  4.2620885868422866e-09  3.5682857430578315e-09  2.9579265136193374e-09  2.4477926266405753e-09  2.0375835466876609e-09  1.7168912194612357e-09  1.4711457525465302e-09  1.2853906935224165e-09  1.1457220773217257e-09  1.0391870674063307e-09  9.5346618226402762e-10  8.7736991478886874e-10  8.0222294564804910e-10  7.2328735065009879e-10  6.4018220601542640e-10  5.5588945702879878e-10  4.7484139611401272e-10  4.0106995781570688e-10  3.3719558962592208e-10  2.8442219470800260e-10  2.4318061544703739e-10  2.1393244076063718e-10  1.9784124044713799e-10  1.9722463279655624e-10  2.1568334934498078e-10  2.5765214816174727e-10  3.2713944230549103e-10  4.2578479117247133e-10  5.5086198196291431e-10  6.9404368235861522e-10  8.4142295056506030e-10  9.7498424293112147e-10  1.0757968439838635e-09  1.1287211254394878e-09  1.1272754731818695e-09  1.0773146592917545e-09  9.9938458284946624e-10  9.2805443964356916e-10  9.0309072934280777e-10  9.5069572244131190e-10  1.0689344021252515e-09  1.2304633121335719e-09  1.3975873584159743e-09  1.5389698336260502e-09  1.6418908671245667e-09  1.7176476318519943e-09  1.8011585950879012e-09  1.9456041236464588e-09  2.2127528501800118e-09  2.6596700429030164e-09  3.3241647403736878e-09  4.2209939350294503e-09  5.4099514549765398e-09  7.4471976355384995e-09  1.3806807502232386e-08  4.3118866433802194e-08  1.8785518316285941e-07  8.7761579281371520e-07  3.9654085618913550e-06  1.6778169852936652e-05  6.5549855789086005e-05  2.3410886417444675e-04  7.5968068611367747e-04  2.2241343357267836e-03  5.8396642553971206e-03  1.3672723780242086e-02  2.8092215381992202e-02  5.1155935936270672e-02  8.2788358017199831e-02  1.1743256173654755e-01  1.4451354254289384e-01  1.5466971838224183e-01  2.2244916091265022e-09  2.1850841664361062e-09  2.0816688693713089e-09  1.9527990710329537e-09  1.8459514062413290e-09  1.8003783316309480e-09  1.8343836394251437e-09  1.9408577260716890e-09  2.0912588146798218e-09  2.2457300496353820e-09  2.3661672176739461e-09  2.4291004205570321e-09  2.4354200072893888e-09  2.4142735061374755e-09  2.4195487322255087e-09  2.5194050920084003e-09  2.7813233206706106e-09  3.2558352095180318e-09  3.9614061945128985e-09  4.8722860803277292e-09  5.9119487824244589e-09  6.95659913703