<?xml version="1.0"?>
<VTKFile type="UnstructuredGrid"  version="0.1"  >
<UnstructuredGrid>
<Piece  NumberOfPoints="20201" NumberOfCells="40000">
<Points>
<DataArray  type="Float64"  NumberOfComponents="3"  format="ascii">0 0 0  2 0 0  4 0 0  6 0 0  8 0 0  10 0 0  12 0 0  14 0 0  16 0 0  18 0 0  20 0 0  22 0 0  24 0 0  26 0 0  28 0 0  30 0 0  32 0 0  34 0 0  36 0 0  38 0 0  40 0 0  42 0 0  44 0 0  46 0 0  48 0 0  50 0 0  52 0 0  54 0 0  56 0 0  58 0 0  60 0 0  62 0 0  64 0 0  66 0 0  68 0 0  70 0 0  72 0 0  74 0 0  76 0 0  78 0 0  80 0 0  82 0 0  84 0 0  86 0 0  88 0 0  90 0 0  92 0 0  94 0 0  96 0 0  98 0 0  100 0 0  102 0 0  104 0 0  106 0 0  108 0 0  110 0 0  112 0 0  114 0 0  116 0 0  118 0 0  120 0 0  122 0 0  124 0 0  126 0 0  128 0 0  130 0 0  132 0 0  134 0 0  136 0 0  138 0 0  140 0 0  142 0 0  144 0 0  146 0 0  148 0 0  150 0 0  152 0 0  154 0 0  156 0 0  158 0 0  160 0 0  162 0 0  164 0 0  166 0 0  168 0 0  170 0 0  172 0 0  174 0 0  176 0 0  178 0 0  180 0 0  182 0 0  184 0 0  186 0 0  188 0 0  190 0 0  192 0 0  194 0 0  196 0 0  198 0 0  200 0 0  0 2 0  2 2 0  4 2 0  6 2 0  8 2 0  10 2 0  12 2 0  14 2 0  16 2 0  18 2 0  20 2 0  22 2 0  24 2 0  26 2 0  28 2 0  30 2 0  32 2 0  34 2 0  36 2 0  38 2 0  40 2 0  42 2 0  44 2 0  46 2 0  48 2 0  50 2 0  52 2 0  54 2 0  56 2 0  58 2 0  60 2 0  62 2 0  64 2 0  66 2 0  68 2 0  70 2 0  72 2 0  74 2 0  76 2 0  78 2 0  80 2 0  82 2 0  84 2 0  86 2 0  88 2 0  90 2 0  92 2 0  94 2 0  96 2 0  98 2 0  100 2 0  102 2 0  104 2 0  106 2 0  108 2 0  110 2 0  112 2 0  114 2 0  116 2 0  118 2 0  120 2 0  122 2 0  124 2 0  126 2 0  128 2 0  130 2 0  132 2 0  134 2 0  136 2 0  138 2 0  140 2 0  142 2 0  144 2 0  146 2 0  148 2 0  150 2 0  152 2 0  154 2 0  156 2 0  158 2 0  160 2 0  162 2 0  164 2 0  166 2 0  168 2 0  170 2 0  172 2 0  174 2 0  176 2 0  178 2 0  180 2 0  182 2 0  184 2 0  186 2 0  188 2 0  190 2 0  192 2 0  194 2 0  196 2 0  198 2 0  200 2 0  0 4 0  2 4 0  4 4 0  6 4 0  8 4 0  10 4 0  12 4 0  14 4 0  16 4 0  18 4 0  20 4 0  22 4 0  24 4 0  26 4 0  28 4 0  30 4 0  32 4 0  34 4 0  36 4 0  38 4 0  40 4 0  42 4 0  44 4 0  46 4 0  48 4 0  50 4 0  52 4 0  54 4 0  56 4 0  58 4 0  60 4 0  62 4 0  64 4 0  66 4 0  68 4 0  70 4 0  72 4 0  74 4 0  76 4 0  78 4 0  80 4 0  82 4 0  84 4 0  86 4 0  88 4 0  90 4 0  92 4 0  94 4 0  96 4 0  98 4 0  100 4 0  102 4 0  104 4 0  106 4 0  108 4 0  110 4 0  112 4 0  114 4 0  116 4 0  118 4 0  120 4 0  122 4 0  124 4 0  126 4 0  128 4 0  130 4 0  132 4 0  134 4 0  136 4 0  138 4 0  140 4 0  142 4 0  144 4 0  146 4 0  148 4 0  150 4 0  152 4 0  154 4 0  156 4 0  158 4 0  160 4 0  162 4 0  164 4 0  166 4 0  168 4 0  170 4 0  172 4 0  174 4 0  176 4 0  178 4 0  180 4 0  182 4 0  184 4 0  186 4 0  188 4 0  190 4 0  192 4 0  194 4 0  196 4 0  198 4 0  200 4 0  0 6 0  2 6 0  4 6 0  6 6 0  8 6 0  10 6 0  12 6 0  14 6 0  16 6 0  18 6 0  20 6 0  22 6 0  24 6 0  26 6 0  28 6 0  30 6 0  32 6 0  34 6 0  36 6 0  38 6 0  40 6 0  42 6 0  44 6 0  46 6 0  48 6 0  50 6 0  52 6 0  54 6 0  56 6 0  58 6 0  60 6 0  62 6 0  64 6 0  66 6 0  68 6 0  70 6 0  72 6 0  74 6 0  76 6 0  78 6 0  80 6 0  82 6 0  84 6 0  86 6 0  88 6 0  90 6 0  92 6 0  94 6 0  96 6 0  98 6 0  100 6 0  102 6 0  104 6 0  106 6 0  108 6 0  110 6 0  112 6 0  114 6 0  116 6 0  118 6 0  120 6 0  122 6 0  124 6 0  126 6 0  128 6 0  130 6 0  132 6 0  134 6 0  136 6 0  138 6 0  140 6 0  142 6 0  144 6 0  146 6 0  148 6 0  150 6 0  152 6 0  154 6 0  156 6 0  158 6 0  160 6 0  162 6 0  164 6 0  166 6 0  168 6 0  170 6 0  172 6 0  174 6 0  176 6 0  178 6 0  180 6 0  182 6 0  184 6 0  186 6 0  188 6 0  190 6 0  192 6 0  194 6 0  196 6 0  198 6 0  200 6 0  0 8 0  2 8 0  4 8 0  6 8 0  8 8 0  10 8 0  12 8 0  14 8 0  16 8 0  18 8 0  20 8 0  22 8 0  24 8 0  26 8 0  28 8 0  30 8 0  32 8 0  34 8 0  36 8 0  38 8 0  40 8 0  42 8 0  44 8 0  46 8 0  48 8 0  50 8 0  52 8 0  54 8 0  56 8 0  58 8 0  60 8 0  62 8 0  64 8 0  66 8 0  68 8 0  70 8 0  72 8 0  74 8 0  76 8 0  78 8 0  80 8 0  82 8 0  84 8 0  86 8 0  88 8 0  90 8 0  92 8 0  94 8 0  96 8 0  98 8 0  100 8 0  102 8 0  104 8 0  106 8 0  108 8 0  110 8 0  112 8 0  114 8 0  116 8 0  118 8 0  120 8 0  122 8 0  124 8 0  126 8 0  128 8 0  130 8 0  132 8 0  134 8 0  136 8 0  138 8 0  140 8 0  142 8 0  144 8 0  146 8 0  148 8 0  150 8 0  152 8 0  154 8 0  156 8 0  158 8 0  160 8 0  162 8 0  164 8 0  166 8 0  168 8 0  170 8 0  172 8 0  174 8 0  176 8 0  178 8 0  180 8 0  182 8 0  184 8 0  186 8 0  188 8 0  190 8 0  192 8 0  194 8 0  196 8 0  198 8 0  200 8 0  0 10 0  2 10 0  4 10 0  6 10 0  8 10 0  10 10 0  12 10 0  14 10 0  16 10 0  18 10 0  20 10 0  22 10 0  24 10 0  26 10 0  28 10 0  30 10 0  32 10 0  34 10 0  36 10 0  38 10 0  40 10 0  42 10 0  44 10 0  46 10 0  48 10 0  50 10 0  52 10 0  54 10 0  56 10 0  58 10 0  60 10 0  62 10 0  64 10 0  66 10 0  68 10 0  70 10 0  72 10 0  74 10 0  76 10 0  78 10 0  80 10 0  82 10 0  84 10 0  86 10 0  88 10 0  90 10 0  92 10 0  94 10 0  96 10 0  98 10 0  100 10 0  102 10 0  104 10 0  106 10 0  108 10 0  110 10 0  112 10 0  114 10 0  116 10 0  118 10 0  120 10 0  122 10 0  124 10 0  126 10 0  128 10 0  130 10 0  132 10 0  134 10 0  136 10 0  138 10 0  140 10 0  142 10 0  144 10 0  146 10 0  148 10 0  150 10 0  152 10 0  154 10 0  156 10 0  158 10 0  160 10 0  162 10 0  164 10 0  166 10 0  168 10 0  170 10 0  172 10 0  174 10 0  176 10 0  178 10 0  180 10 0  182 10 0  184 10 0  186 10 0  188 10 0  190 10 0  192 10 0  194 10 0  196 10 0  198 10 0  200 10 0  0 12 0  2 12 0  4 12 0  6 12 0  8 12 0  10 12 0  12 12 0  14 12 0  16 12 0  18 12 0  20 12 0  22 12 0  24 12 0  26 12 0  28 12 0  30 12 0  32 12 0  34 12 0  36 12 0  38 12 0  40 12 0  42 12 0  44 12 0  46 12 0  48 12 0  50 12 0  52 12 0  54 12 0  56 12 0  58 12 0  60 12 0  62 12 0  64 12 0  66 12 0  68 12 0  70 12 0  72 12 0  74 12 0  76 12 0  78 12 0  80 12 0  82 12 0  84 12 0  86 12 0  88 12 0  90 12 0  92 12 0  94 12 0  96 12 0  98 12 0  100 12 0  102 12 0  104 12 0  106 12 0  108 12 0  110 12 0  112 12 0  114 12 0  116 12 0  118 12 0  120 12 0  122 12 0  124 12 0  126 12 0  128 12 0  130 12 0  132 12 0  134 12 0  136 12 0  138 12 0  140 12 0  142 12 0  144 12 0  146 12 0  148 12 0  150 12 0  152 12 0  154 12 0  156 12 0  158 12 0  160 12 0  162 12 0  164 12 0  166 12 0  168 12 0  170 12 0  172 12 0  174 12 0  176 12 0  178 12 0  180 12 0  182 12 0  184 12 0  186 12 0  188 12 0  190 12 0  192 12 0  194 12 0  196 12 0  198 12 0  200 12 0  0 14 0  2 14 0  4 14 0  6 14 0  8 14 0  10 14 0  12 14 0  14 14 0  16 14 0  18 14 0  20 14 0  22 14 0  24 14 0  26 14 0  28 14 0  30 14 0  32 14 0  34 14 0  36 14 0  38 14 0  40 14 0  42 14 0  44 14 0  46 14 0  48 14 0  50 14 0  52 14 0  54 14 0  56 14 0  58 14 0  60 14 0  62 14 0  64 14 0  66 14 0  68 14 0  70 14 0  72 14 0  74 14 0  76 14 0  78 14 0  80 14 0  82 14 0  84 14 0  86 14 0  88 14 0  90 14 0  92 14 0  94 14 0  96 14 0  98 14 0  100 14 0  102 14 0  104 14 0  106 14 0  108 14 0  110 14 0  112 14 0  114 14 0  116 14 0  118 14 0  120 14 0  122 14 0  124 14 0  126 14 0  128 14 0  130 14 0  132 14 0  134 14 0  136 14 0  138 14 0  140 14 0  142 14 0  144 14 0  146 14 0  148 14 0  150 14 0  152 14 0  154 14 0  156 14 0  158 14 0  160 14 0  162 14 0  164 14 0  166 14 0  168 14 0  170 14 0  172 14 0  174 14 0  176 14 0  178 14 0  180 14 0  182 14 0  184 14 0  186 14 0  188 14 0  190 14 0  192 14 0  194 14 0  196 14 0  198 14 0  200 14 0  0 16 0  2 16 0  4 16 0  6 16 0  8 16 0  10 16 0  12 16 0  14 16 0  16 16 0  18 16 0  20 16 0  22 16 0  24 16 0  26 16 0  28 16 0  30 16 0  32 16 0  34 16 0  36 16 0  38 16 0  40 16 0  42 16 0  44 16 0  46 16 0  48 16 0  50 16 0  52 16 0  54 16 0  56 16 0  58 16 0  60 16 0  62 16 0  64 16 0  66 16 0  68 16 0  70 16 0  72 16 0  74 16 0  76 16 0  78 16 0  80 16 0  82 16 0  84 16 0  86 16 0  88 16 0  90 16 0  92 16 0  94 16 0  96 16 0  98 16 0  100 16 0  102 16 0  104 16 0  106 16 0  108 16 0  110 16 0  112 16 0  114 16 0  116 16 0  118 16 0  120 16 0  122 16 0  124 16 0  126 16 0  128 16 0  130 16 0  132 16 0  134 16 0  136 16 0  138 16 0  140 16 0  142 16 0  144 16 0  146 16 0  148 16 0  150 16 0  152 16 0  154 16 0  156 16 0  158 16 0  160 16 0  162 16 0  164 16 0  166 16 0  168 16 0  170 16 0  172 16 0  174 16 0  176 16 0  178 16 0  180 16 0  182 16 0  184 16 0  186 16 0  188 16 0  190 16 0  192 16 0  194 16 0  196 16 0  198 16 0  200 16 0  0 18 0  2 18 0  4 18 0  6 18 0  8 18 0  10 18 0  12 18 0  14 18 0  16 18 0  18 18 0  20 18 0  22 18 0  24 18 0  26 18 0  28 18 0  30 18 0  32 18 0  34 18 0  36 18 0  38 18 0  40 18 0  42 18 0  44 18 0  46 18 0  48 18 0  50 18 0  52 18 0  54 18 0  56 18 0  58 18 0  60 18 0  62 18 0  64 18 0  66 18 0  68 18 0  70 18 0  72 18 0  74 18 0  76 18 0  78 18 0  80 18 0  82 18 0  84 18 0  86 18 0  88 18 0  90 18 0  92 18 0  94 18 0  96 18 0  98 18 0  100 18 0  102 18 0  104 18 0  106 18 0  108 18 0  110 18 0  112 18 0  114 18 0  116 18 0  118 18 0  120 18 0  122 18 0  124 18 0  126 18 0  128 18 0  130 18 0  132 18 0  134 18 0  136 18 0  138 18 0  140 18 0  142 18 0  144 18 0  146 18 0  148 18 0  150 18 0  152 18 0  154 18 0  156 18 0  158 18 0  160 18 0  162 18 0  164 18 0  166 18 0  168 18 0  170 18 0  172 18 0  174 18 0  176 18 0  178 18 0  180 18 0  182 18 0  184 18 0  186 18 0  188 18 0  190 18 0  192 18 0  194 18 0  196 18 0  198 18 0  200 18 0  0 20 0  2 20 0  4 20 0  6 20 0  8 20 0  10 20 0  12 20 0  14 20 0  16 20 0  18 20 0  20 20 0  22 20 0  24 20 0  26 20 0  28 20 0  30 20 0  32 20 0  34 20 0  36 20 0  38 20 0  40 20 0  42 20 0  44 20 0  46 20 0  48 20 0  50 20 0  52 20 0  54 20 0  56 20 0  58 20 0  60 20 0  62 20 0  64 20 0  66 20 0  68 20 0  70 20 0  72 20 0  74 20 0  76 20 0  78 20 0  80 20 0  82 20 0  84 20 0  86 20 0  88 20 0  90 20 0  92 20 0  94 20 0  96 20 0  98 20 0  100 20 0  102 20 0  104 20 0  106 20 0  108 20 0  110 20 0  112 20 0  114 20 0  116 20 0  118 20 0  120 20 0  122 20 0  124 20 0  126 20 0  128 20 0  130 20 0  132 20 0  134 20 0  136 20 0  138 20 0  140 20 0  142 20 0  144 20 0  146 20 0  148 20 0  150 20 0  152 20 0  154 20 0  156 20 0
[...]
<PointData  Scalars="f_271-4"> 
<DataArray  type="Float64"  Name="f_271-4"  format="ascii">2.0057471982195241e-01  1.8543495164458990e-01  1.4717480987610496e-01  9.6028675312999009e-02  4.6741760711552574e-02  1.4251692673784715e-02  4.5964994138152689e-03  1.7917656510299671e-02  5.1982125048439722e-02  9.8276201588391732e-02  1.4224933491672578e-01  1.7139910890405952e-01  1.7949254455217439e-01  1.6710495622469559e-01  1.4068875793293886e-01  1.0823304939490555e-01  7.5647265942402508e-02  4.6722291552767407e-02  2.4212713748997895e-02  9.6501026497964309e-03  2.5041554289956295e-03  3.8676260803625787e-04  4.0481581355211857e-04  5.3041942550636622e-04  2.7873900808652273e-04  5.9755768193605534e-04  3.1579957860699507e-03  9.4376930907987492e-03  1.9892852697312346e-02  3.3345601628729606e-02  4.6806450375292089e-02  5.6066933022413973e-02  5.7336255511645645e-02  4.9496620680670955e-02  3.5185545670443637e-02  1.9390465231404273e-02  7.0540492707967823e-03  1.7338452304751903e-03  4.7312330895094091e-03  1.4170614492343797e-02  2.6946669328624256e-02  4.2476112922670423e-02  6.2508006226459537e-02  8.6892033740105151e-02  1.0992571353160085e-01  1.2258128162053862e-01  1.1877032989810235e-01  9.9881662128531307e-02  7.3501004279386425e-02  4.7793013520659400e-02  2.7533163537190087e-02  1.3944051593333560e-02  6.1501434462278969e-03  2.4392738158066055e-03  1.1074339839326961e-03  1.1020679778583227e-03  2.4495103216081084e-03  6.2808633096460434e-03  1.4274454740993928e-02  2.7639643099497551e-02  4.7473536022897701e-02  7.9201878182747001e-02  1.3614279775882135e-01  2.2818975822514637e-01  3.3839085353219606e-01  4.2766513330504075e-01  4.6997504352584174e-01  4.6361184089710356e-01  4.1477226327260253e-01  3.3408607684645958e-01  2.4095736685772615e-01  1.5616810687664517e-01  9.1602396871282896e-02  4.8642365919465462e-02  2.2653167290346256e-02  8.3703813955789963e-03  1.9642720964233554e-03  5.0956310999612396e-04  1.3086221653180693e-03  2.1057328303045455e-03  1.7796613886262604e-03  7.5238581077896702e-04  8.2968524482878705e-04  4.6567152732678811e-03  1.5185909498434465e-02  3.5315091961104460e-02  6.7114033307315926e-02  1.1004230511871076e-01  1.5935936618861565e-01  2.0612775008730166e-01  2.3660095792698704e-01  2.3214450608596768e-01  1.8137803713936335e-01  1.0345695369550888e-01  4.6761492434560667e-02  2.1301870965489016e-02  9.9531532289525351e-03  4.4473660998071204e-03  1.6865410226531478e-03  3.9345210115512196e-04  5.3008760713144770e-05  1.9245475321393368e-01  1.7927111004389598e-01  1.4459037673714364e-01  9.6850881785421894e-02  4.9390408859328980e-02  1.6402302378543343e-02  4.4005595764247197e-03  1.3947833664829818e-02  4.3318035460648593e-02  8.5621793533899565e-02  1.2783462517665592e-01  1.5739148952229579e-01  1.6743290897320318e-01  1.5793106953080935e-01  1.3456635390490318e-01  1.0473366737433919e-01  7.4162048018644344e-02  4.6648080669916471e-02  2.4924393429364908e-02  1.0534415979072165e-02  3.1203062087739437e-03  5.8177113656390116e-04  2.8271718466394363e-04  3.3152362290201612e-04  2.4218807299752922e-04  8.5375201206295290e-04  3.6801446737009880e-03  1.0042791421845531e-02  2.0270171213874286e-02  3.3121868047747270e-02  4.5667404396476964e-02  5.3920914809459222e-02  5.4432271546516205e-02  4.6358275160740779e-02  3.2368342806488024e-02  1.7294474220591105e-02  5.9307653335426485e-03  1.7402471459743590e-03  5.8383607759310919e-03  1.6058401364139718e-02  2.9226218285928300e-02  4.4996901555333008e-02  6.5381453914322374e-02  9.0320430081620398e-02  1.1379067233586182e-01  1.2622695128176492e-01  1.2143567199461321e-01  1.0124460821147882e-01  7.3766691538588683e-02  4.7413703367516762e-02  2.6924210338209284e-02  1.3367371480853823e-02  5.7187368651279704e-03  2.1590516838680507e-03  9.2206515457225920e-04  9.3412489470036354e-04  2.2316285908877045e-03  5.9769568874332071e-03  1.3930352333075699e-02  2.7531734742342422e-02  4.8145746255056826e-02  8.0790658411563951e-02  1.3689821017764264e-01  2.2389949272171630e-01  3.2598058027343341e-01  4.0858779087904418e-01  4.4768775011434331e-01  4.4059187886348705e-01  3.9345511521432741e-01  3.1741955448858655e-01  2.3049956228091475e-01  1.5110659827417816e-01  9.0011139427753600e-02  4.8777051457381398e-02  2.3428846995681745e-02  9.2000709865148068e-03  2.4928141487065370e-03  5.3894348979672451e-04  8.5486981697980322e-04  1.4097707114002992e-03  1.1893598664336478e-03  5.2663712811305461e-04  9.5517037414021466e-04  4.7332994904881230e-03  1.4354614110949390e-02  3.2157503185410892e-02  5.9602282477127490e-02  9.5849840784723264e-02  1.3666769459763381e-01  1.7478355809097462e-01  1.9988209029924645e-01  1.9828926885131440e-01  1.6055673783698152e-01  9.7931576054698474e-02  4.6767598966362955e-02  2.1735018855811330e-02  1.0368346653651422e-02  4.7937635998060689e-03  1.9591068406886901e-03  5.6363267665924155e-04  1.1264184430060310e-04  1.6741777460855581e-01  1.5805688736361717e-01  1.3113279336969766e-01  9.1918583711996169e-02  5.0808434579753113e-02  1.9538984563246126e-02  4.7425018429325958e-03  7.7803747697652503e-03  2.7695228267789255e-02  6.0328273415492559e-02  9.6466825594109823e-02  1.2496077062887240e-01  1.3823697479939784e-01  1.3484470171332186e-01  1.1856411641482112e-01  9.5226811443928791e-02  6.9908513534616037e-02  4.6251838278585249e-02  2.6849346478253714e-02  1.3205364078037823e-02  5.3203177433854493e-03  1.7935125478505062e-03  6.7923456712358596e-04  4.8767963834905816e-04  7.5504514403971817e-04  2.0216267041875684e-03  5.3377572008728022e-03  1.1557298093122441e-02  2.0665984182328481e-02  3.1345787101595003e-02  4.0998354388584769e-02  4.6424784902417186e-02  4.5181458154015877e-02  3.7083717037943609e-02  2.4682723205151823e-02  1.2154687426897366e-02  3.6538698951833438e-03  2.1747050513816007e-03  8.3657839941864171e-03  1.9783157565441967e-02  3.3479462549117163e-02  4.9432606575256818e-02  6.9602032807935171e-02  9.3701795775288171e-02  1.1568346673176241e-01  1.2626490264275445e-01  1.1988167028174836e-01  9.8943956023587659e-02  7.1614818054939952e-02  4.5930047634086146e-02  2.6203171819307928e-02  1.3236614455576282e-02  5.9207426836388544e-03  2.4875278286862418e-03  1.2993146709296911e-03  1.4175296078481644e-03  2.9462939890419486e-03  7.0150470891705077e-03  1.5349243102820008e-02  2.9638465857398096e-02  5.1665229925490046e-02  8.5321430546915919e-02  1.3728525160581045e-01  2.0950335180216639e-01  2.8888209225648415e-01  3.5155616160116099e-01  3.8008925482573580e-01  3.7136196040436642e-01  3.3106226586883353e-01  2.6955890225410445e-01  2.0029355908395077e-01  1.3605250337434527e-01  8.4939779376470306e-02  4.8900743188072346e-02  2.5644214275785202e-02  1.1789238419137262e-02  4.4681196523422622e-03  1.3882088689345865e-03  5.9247085290992693e-04  5.5608334807186687e-04  4.9948252800602062e-04  5.6948490748499718e-04  1.7307470181500046e-03  5.4421678013924692e-03  1.3282858365934970e-02  2.6578250438138440e-02  4.5853821839543583e-02  7.0073190737620389e-02  9.6273777478843983e-02  1.2012435099391623e-01  1.3639383862766283e-01  1.3859802918948744e-01  1.2096561441296974e-01  8.5267916556753309e-02  4.7427709704675726e-02  2.3733677484100608e-02  1.1987091768326191e-02  6.0367056254245566e-03  2.8868424819070821e-03  1.1913123887370674e-03  5.0601355687481474e-04  1.2801503199627193e-01  1.2309610927417382e-01  1.0593701863176704e-01  7.8446121844437680e-02  4.7582661447822625e-02  2.1600754854152873e-02  6.2405822748253167e-03  3.6250301341430756e-03  1.3609525641528604e-02  3.4096582117344468e-02  6.0025067203704568e-02  8.3870914173288291e-02  9.8878415209412915e-02  1.0211540175290712e-01  9.4814053719911889e-02  8.0508539008655081e-02  6.2986337928778155e-02  4.5344251493532731e-02  2.9871311929837493e-02  1.7992666445884490e-02  1.0105892203529246e-02  5.6506907418992971e-03  3.5804972565223196e-03  2.9769485638751090e-03  3.4513514449200015e-03  5.1740843789244342e-03  8.5780606437518853e-03  1.3896549137950943e-02  2.0728811535077826e-02  2.7824591353991027e-02  3.3249131134649230e-02  3.4992517470298322e-02  3.1892944672573954e-02  2.4436497623586659e-02  1.4839072185711333e-02  6.2861710441246693e-03  1.9053969485029556e-03  3.8547894668217756e-03  1.2252865724106098e-02  2.4843264865577433e-02  3.9226125225584531e-02  5.5232541816171730e-02  7.3866589528686799e-02  9.4094417614792550e-02  1.1079994566797240e-01  1.1704444440391733e-01  1.0919602054504932e-01  8.9835951996540125e-02  6.5733344768503288e-02  4.3321914083054469e-02  2.6024008129455961e-02  1.4452614699984547e-02  7.6968774536563230e-03  4.3627725011211906e-03  3.2287821784230475e-03  3.6776586560862486e-03  5.9132144128512436e-03  1.0903118533136821e-02  2.0077291033637906e-02  3.4969443296089552e-02  5.7185161935846114e-02  8.8780416091287034e-02  1.3144583041385527e-01  1.8276747556425729e-01  2.3323716966690045e-01  2.6990062495066719e-01  2.8401860183177302e-01  2.7445423020243986e-01  2.4549325745074591e-01  2.0393758152660568e-01  1.5744915505136808e-01  1.1319870456047708e-01  7.6224584716263963e-02  4.8408830309238052e-02  2.9092203534897731e-02  1.6549894814316537e-02  8.9956345531963054e-03  4.8799676541402904e-03  2.9163212215080345e-03  2.1425228679931444e-03  2.0324780214898306e-03  2.5501617907943575e-03  4.0827830582736060e-03  7.2734674693309374e-03  1.2808206596743565e-02  2.1179242952296996e-02  3.2406197506788414e-02  4.5771606035822129e-02  5.9792665904059052e-02  7.2536877335756936e-02  8.1894239626761955e-02  8.5405928822414087e-02  8.0391143620669861e-02  6.5808138896945034e-02  4.5284767846596283e-02  2.6981050070734893e-02  1.5352294938380568e-02  8.8152462855607475e-03  5.1141843537042941e-03  2.9339413472083426e-03  1.9385004426705199e-03  8.2518994989203981e-02  8.1730182231369172e-02  7.4472045968234230e-02  5.9589857487045199e-02  4.0639754826174157e-02  2.2385905342942079e-02  8.9659525396177803e-03  2.8038269077912924e-03  4.6403462882599385e-03  1.3834126011172749e-02  2.8267952810291902e-02  4.4301852232808414e-02  5.7708036654213493e-02  6.5389956083759831e-02  6.6451515488933618e-02  6.1902300807785290e-02  5.3663905629063313e-02  4.3753272850886600e-02  3.3884566018941263e-02  2.5298720831509740e-02  1.8672542750791082e-02  1.4137361229686819e-02  1.1455470920369243e-02  1.0282792364241745e-02  1.0372611193328097e-02  1.1620760854975338e-02  1.3950192889719880e-02  1.7112693285948489e-02  2.0525652231701830e-02  2.3259911447678625e-02  2.4245794262332740e-02  2.2671614489111449e-02  1.8433045171641276e-02  1.2399736041260238e-02  6.3055554341691815e-03  2.2951745343814472e-03  2.3422989137116272e-03  7.6141148881383892e-03  1.7797080038311097e-02  3.1109990472897593e-02  4.5678956223124831e-02  6.0750442176128586e-02  7.6017570331213577e-02  8.9968517726063610e-02  9.9266280351939268e-02  1.0027595262895074e-01  9.1701850477458283e-02  7.5846295759716895e-02  5.7235437651325494e-02  4.0037296608881709e-02  2.6536749195344225e-02  1.7223383580803706e-02  1.1573394955049705e-02  8.7540903452857418e-03  8.0863191007570830e-03  9.3125929454597450e-03  1.2686957098841625e-02  1.8891245937484501e-02  2.8828275863916872e-02  4.3378489085211080e-02  6.3174932715653956e-02  8.8279256608003301e-02  1.1745373722841219e-01  1.4725107034565096e-01  1.7227805137616994e-01  1.8739855905609118e-01  1.9013317082200903e-01  1.8111939232895535e-01  1.6294362659915959e-01  1.3893940453960280e-01  1.1258464062912178e-01  8.7086042495547522e-02  6.4820966081183401e-02  4.6944683127561358e-02  3.3513368776682755e-02  2.3946344371009995e-02  1.7447422332960802e-02  1.3235989429779332e-02  1.0645122886751854e-02  9.1683964868553933e-03  8.4858686873535601e-03  8.4648287095423023e-03  9.1286330263712408e-03  1.0598265164694353e-02  1.3017849128277095e-02  1.6473508451614226e-02  2.0915181123449273e-02  2.6105197554413175e-02  3.1628949070846811e-02  3.6964606490257013e-02  4.1527913592532113e-02  4.4605589005864393e-02  4.5277051182007283e-02  4.2668111934351098e-02  3.6666994398578942e-02  2.8594952595173546e-02  2.0769344061914378e-02  1.4707565813845159e-02  1.0506440023639704e-02  7.6649633119015006e-03  6.2835226069198379e-03  4.2323525900866361e-02  4.4090287399763992e-02  4.4153522341967039e-02  3.9754257543802594e-02  3.1757819431979917e-02  2.2035680679854858e-02  1.2785649939386327e-02  5.9390441218634404e-03  2.7628289679782316e-03  3.7360852694696585e-03  8.5539554608049639e-03  1.6157275350013170e-02  2.4890620377350577e-02  3.2939929820548740e-02  3.8908190723465866e-02  4.2162287035815690e-02  4.2794736005402269e-02  4.1360034370712249e-02  3.8597059870522636e-02  3.5227550140273498e-02  3.1833106200816315e-02  2.8799671623601347e-02  2.6322449906262976e-02  2.4451764993770702e-02  2.3144467587885784e-02  2.2289345235787593e-02  2.1700024133310635e-02  2.1098062222425489e-02  2.0124596655464077e-02  1.8411808548935031e-02  1.5716992039245602e-02  1.2083235132446437e-02  7.9586938677992207e-03  4.2024688138634090e-03  1.9461661413929488e-03  2.3452468038342904e-03  6.2747182625647021e-03  1.3993060829993820e-02  2.4880393947181369e-02  3.7563613655902779e-02  5.0517642451385666e-02  6.2552234056516956e-02  7.2676006429315168e-02  7.9696441900693596e-02  8.2235229183118791e-02  7.9367153120731671e-02  7.1405812515125594e-02  6.0072403568936186e-02  4.7786987542724826e-02  3.6650421805656509e-02  2.7866464272079554e-02  2.1783763297363888e-02  1.8246528340374612e-02  1.6946276940861142e-02  1.7658660413560668e-02  2.0353716099133872e-02  2.5191605735188395e-02  3.2426497342275450e-02  4.2251042573682999e-02  5.4612062416160276e-02  6.9021794623558064e-02  8.4401977788221172e-02  9.9053547989983906e-02  1.1091242427645984e-01  1.1815660004598520e-01  1.1987361741510985e-01  1.1629674519079185e-01  1.0849286919643353e-01  9.7867198718586526e-02  8.5827683413494379e-02  7.3635382587644599e-02  6.2312018558300160e-02  5.2547661391484306e-02  4.4654506820015191e-02  3.8607659113138147e-02  3.4147069600117000e-02  3.0887917042955532e-02  2.8410281226429756e-02  2.6326450228577259e-02  2.4332458452245645e-02  2.2246050765715484e-02  2.0026267691956787e-02  1.7765651508106800e-02  1.5649933105564433e-02  1.3893778923616918e-02  1.2675364254845877e-02  1.2093634119086172e-02  1.2159418154410630e-02  1.2816727122439668e-02  1.3980493216496545e-02  1.5569323712011076e-02  1.7507898007108245e-02  1.9684904252576015e-02  2.1886807061000962e-02  2.3766985655991071e-02  2.4901159728910102e-02  2.4951908199184202e-02  2.3859244985569416e-02  2.1847727766554650e-02  1.9348512085698065e-02  1.7797055526974088e-02  1.5417834385081612e-02  1.7653110245632608e-02  2.0872999827524930e-02  2.2740632234553151e-02  2.2749840535903863e-02  2.0839074683605980e-02  1.7352498577576786e-02  1.2990033535297025e-02  8.6544819288997057e-03  5.2597886334268462e-03  3.5578687232216046e-03  4.0137144180503615e-03  6.7368907095424055e-03  1.1478291492120238e-02  1.7699732906187756e-02  2.4697602280357910e-02  3.1737064178198743e-02  3.8160934002262566e-02  4.3459122338314338e-02  4.7293971403040022e-02  4.9484051164163101e-02  4.9967954106131370e-02  4.8780615113683388e-02  4.6055419880936921e-02  4.2030346283544129e-02  3.7026048657380774e-02  3.1393587197624750e-02  2.5464508724005665e-02  1.9536596748068426e-02  1.3899723884529711e-02  8.8791567064994328e-03  4.8654942966973713e-03  2.3085818803556110e-03  1.6689844254970225e-03  3.3363522527442148e-03  7.5300565156358034e-03  1.4193355387512454e-02  2.2899013889852521e-02  3.2821230858049888e-02  4.2848327180490905e-02  5.1824855376421577e-02  5.8784884424462572e-02  6.3062685999863088e-02  6.4317068344116560e-02  6.2564206966687505e-02  5.8230255664174384e-02  5.2138989861577813e-02  4.5356990229700946e-02  3.8932396724114027e-02  3.3665130806669677e-02  3.0020985852505139e-02  2.8186056583125979e-02  2.8179851294001690e-02  2.9951134733499734e-02  3.3421975950165758e-02  3.8477835514938614e-02  4.4917892566907980e-02  5.2388444085920256e-02  6.0329959634677986e-02  6.7975340375709875e-02  7.4432443363323261e-02  7.8854741831471328e-02  8.0654764038280771e-02  7.9674437021752392e-02  7.6227638235501355e-02  7.0988149905508613e-02  6.4784439575804889e-02  5.8408501252374762e-02  5.2508383381945183e-02  4.7563139803231395e-02  4.3900302746238774e-02  4.1717421103433835e-02  4.1085476971202163e-02  4.1926784031000329e-02  4.3973530438061820e-02  4.6729676637783511e-02  4.9473980860085372e-02  5.1340895782047286e-02  5.1488730467129984e-02  4.9321703376832733e-02  4.4696362358878416e-02  3.8023426415605313e-02  3.0187905486681824e-02  2.2286720924179736e-02  1.5300482451521522e-02  9.8589605895513452e-03  6.1732588558726306e-03  4.0946752642246811e-03  3.2359575788874092e-03  3.1348946133286678e-03  3.4499120933665986e-03  4.1270127415849976e-03  5.4489484920345757e-03  7.9197767141358632e-03  1.2007029879275318e-02  1.7818444072717866e-02  2.4834057789081942e-02  3.1848169271426759e-02  3.7242575837630243e-02  3.9737881626021127e-02  4.0012466537996089e-02  3.4181594872581163e-03  4.4296976049438882e-03  6.9711276603917323e-03  1.0652202420983210e-02  1.4979674303781191e-02  1.9124233484417125e-02  2.2104784306709098e-02  2.3080249070449387e-02  2.1641469334548823e-02  1.7995072930246072e-02  1.2976430500002904e-02  7.8872572103906319e-03  4.1917739913440912e-03  3.1716350571625168e-03  5.6767902973211201e-03  1.2008602202170293e-02  2.1856547770893072e-02  3.4255584766920144e-02  4.7661109483365043e-02  6.0229153198205952e-02  7.0191971010189425e-02  7.6140509422149213e-02  7.7216997794445325e-02  7.3307185567501071e-02  6.5130977028720533e-02  5.4055740390861674e-02  4.1690951374807661e-02  2.9517139456750184e-02  1.8710076386271552e-02  1.0124333158889283e-02  4.3224318071560753e-03  1.5845266771510409e-03  1.9064723117364689e-03  5.0187868721587444e-03  1.0433511162066580e-02  1.7496858841787345e-02  2.5431334282015224e-02  3.3381246109661603e-02  4.0491197748968803e-02  4.6026049610371267e-02  4.9498544766780943e-02  5.0748770954871479e-02  4.9943387270948013e-02  4.7507586140823205e-02  4.4025955255420898e-02  4.0141674981529797e-02  3.6469926109378922e-02  3.3536768566463468e-02  3.1753288213984973e-02  3.1424710408120539e-02  3.2775565908841758e-02  3.5956734206858729e-02  4.1003180909939402e-02  4.7743948984980605e-02  5.5715346302078909e-02  6.4143947546803332e-02  7.2021227387170983e-02  7.8246655535510440e-02  8.1822666574189643e-02  8.2085143901657942e-02  7.8901547727542001e-02  7.2733069162683531e-02  6.4508918277980346e-02  5.5366871282283188e-02  4.6379889216445945e-02  3.8369436443923106e-02  3.1840987062723050e-02  2.7025013774621298e-02  2.3985624651734861e-02  2.2752322528914629e-02  2.3426050058607654e-02  2.6214603345481549e-02  3.1370681907578274e-02  3.9031651780619132e-02  4.8985968789028403e-02  6.0426572177370380e-02  7.1806105838181519e-02  8.0946393435915545e-02  8.5504811526804864e-02  8.3741487797441491e-02  7.5312517586804753e-02  6.1637273358281251e-02  4.5471874571652013e-02  2.9833646818387859e-02  1.6971607149563337e-02  7.9688382406500110e-03  2.9075073211267386e-03  1.1559257974734086e-03  1.5602249274343639e-03  2.6934935870375318e-03  3.3258779575833521e-03  2.9589495392197632e-03  2.0933215511112027e-03  2.0716711966365059e-03  4.5834337401252827e-03  1.1020903406503040e-02  2.1865852662749905e-02  3.6207223150738294e-02  5.1500689177971487e-02  6.3961542364011192e-02  6.9246843943838940e-02  4.2907653197698315e-03  2.9458779475783825e-03  2.0140696801863186e-03  3.9210656133849761e-03  9.1676728979759089e-03  1.7171381068611911e-02  2.6348064993921939e-02  3.4456198607167594e-02  3.9271487764102199e-02  3.9313000666416721e-02  3.4326712110883867e-02  2.5490614336657075e-02  1.5278904393564953e-02  6.7769102044100528e-03  2.7117473179755808e-03  4.8773298912984436e-03  1.4038112143952161e-02  2.9791789866841816e-02  5.0237613591087943e-02  7.2018388317163562e-02  9.1112920164200084e-02  1.03829199524