<?xml version="1.0"?>
<VTKFile type="UnstructuredGrid"  version="0.1"  >
<UnstructuredGrid>
<Piece  NumberOfPoints="20201" NumberOfCells="40000">
<Points>
<DataArray  type="Float64"  NumberOfComponents="3"  format="ascii">0 0 0  2 0 0  4 0 0  6 0 0  8 0 0  10 0 0  12 0 0  14 0 0  16 0 0  18 0 0  20 0 0  22 0 0  24 0 0  26 0 0  28 0 0  30 0 0  32 0 0  34 0 0  36 0 0  38 0 0  40 0 0  42 0 0  44 0 0  46 0 0  48 0 0  50 0 0  52 0 0  54 0 0  56 0 0  58 0 0  60 0 0  62 0 0  64 0 0  66 0 0  68 0 0  70 0 0  72 0 0  74 0 0  76 0 0  78 0 0  80 0 0  82 0 0  84 0 0  86 0 0  88 0 0  90 0 0  92 0 0  94 0 0  96 0 0  98 0 0  100 0 0  102 0 0  104 0 0  106 0 0  108 0 0  110 0 0  112 0 0  114 0 0  116 0 0  118 0 0  120 0 0  122 0 0  124 0 0  126 0 0  128 0 0  130 0 0  132 0 0  134 0 0  136 0 0  138 0 0  140 0 0  142 0 0  144 0 0  146 0 0  148 0 0  150 0 0  152 0 0  154 0 0  156 0 0  158 0 0  160 0 0  162 0 0  164 0 0  166 0 0  168 0 0  170 0 0  172 0 0  174 0 0  176 0 0  178 0 0  180 0 0  182 0 0  184 0 0  186 0 0  188 0 0  190 0 0  192 0 0  194 0 0  196 0 0  198 0 0  200 0 0  0 2 0  2 2 0  4 2 0  6 2 0  8 2 0  10 2 0  12 2 0  14 2 0  16 2 0  18 2 0  20 2 0  22 2 0  24 2 0  26 2 0  28 2 0  30 2 0  32 2 0  34 2 0  36 2 0  38 2 0  40 2 0  42 2 0  44 2 0  46 2 0  48 2 0  50 2 0  52 2 0  54 2 0  56 2 0  58 2 0  60 2 0  62 2 0  64 2 0  66 2 0  68 2 0  70 2 0  72 2 0  74 2 0  76 2 0  78 2 0  80 2 0  82 2 0  84 2 0  86 2 0  88 2 0  90 2 0  92 2 0  94 2 0  96 2 0  98 2 0  100 2 0  102 2 0  104 2 0  106 2 0  108 2 0  110 2 0  112 2 0  114 2 0  116 2 0  118 2 0  120 2 0  122 2 0  124 2 0  126 2 0  128 2 0  130 2 0  132 2 0  134 2 0  136 2 0  138 2 0  140 2 0  142 2 0  144 2 0  146 2 0  148 2 0  150 2 0  152 2 0  154 2 0  156 2 0  158 2 0  160 2 0  162 2 0  164 2 0  166 2 0  168 2 0  170 2 0  172 2 0  174 2 0  176 2 0  178 2 0  180 2 0  182 2 0  184 2 0  186 2 0  188 2 0  190 2 0  192 2 0  194 2 0  196 2 0  198 2 0  200 2 0  0 4 0  2 4 0  4 4 0  6 4 0  8 4 0  10 4 0  12 4 0  14 4 0  16 4 0  18 4 0  20 4 0  22 4 0  24 4 0  26 4 0  28 4 0  30 4 0  32 4 0  34 4 0  36 4 0  38 4 0  40 4 0  42 4 0  44 4 0  46 4 0  48 4 0  50 4 0  52 4 0  54 4 0  56 4 0  58 4 0  60 4 0  62 4 0  64 4 0  66 4 0  68 4 0  70 4 0  72 4 0  74 4 0  76 4 0  78 4 0  80 4 0  82 4 0  84 4 0  86 4 0  88 4 0  90 4 0  92 4 0  94 4 0  96 4 0  98 4 0  100 4 0  102 4 0  104 4 0  106 4 0  108 4 0  110 4 0  112 4 0  114 4 0  116 4 0  118 4 0  120 4 0  122 4 0  124 4 0  126 4 0  128 4 0  130 4 0  132 4 0  134 4 0  136 4 0  138 4 0  140 4 0  142 4 0  144 4 0  146 4 0  148 4 0  150 4 0  152 4 0  154 4 0  156 4 0  158 4 0  160 4 0  162 4 0  164 4 0  166 4 0  168 4 0  170 4 0  172 4 0  174 4 0  176 4 0  178 4 0  180 4 0  182 4 0  184 4 0  186 4 0  188 4 0  190 4 0  192 4 0  194 4 0  196 4 0  198 4 0  200 4 0  0 6 0  2 6 0  4 6 0  6 6 0  8 6 0  10 6 0  12 6 0  14 6 0  16 6 0  18 6 0  20 6 0  22 6 0  24 6 0  26 6 0  28 6 0  30 6 0  32 6 0  34 6 0  36 6 0  38 6 0  40 6 0  42 6 0  44 6 0  46 6 0  48 6 0  50 6 0  52 6 0  54 6 0  56 6 0  58 6 0  60 6 0  62 6 0  64 6 0  66 6 0  68 6 0  70 6 0  72 6 0  74 6 0  76 6 0  78 6 0  80 6 0  82 6 0  84 6 0  86 6 0  88 6 0  90 6 0  92 6 0  94 6 0  96 6 0  98 6 0  100 6 0  102 6 0  104 6 0  106 6 0  108 6 0  110 6 0  112 6 0  114 6 0  116 6 0  118 6 0  120 6 0  122 6 0  124 6 0  126 6 0  128 6 0  130 6 0  132 6 0  134 6 0  136 6 0  138 6 0  140 6 0  142 6 0  144 6 0  146 6 0  148 6 0  150 6 0  152 6 0  154 6 0  156 6 0  158 6 0  160 6 0  162 6 0  164 6 0  166 6 0  168 6 0  170 6 0  172 6 0  174 6 0  176 6 0  178 6 0  180 6 0  182 6 0  184 6 0  186 6 0  188 6 0  190 6 0  192 6 0  194 6 0  196 6 0  198 6 0  200 6 0  0 8 0  2 8 0  4 8 0  6 8 0  8 8 0  10 8 0  12 8 0  14 8 0  16 8 0  18 8 0  20 8 0  22 8 0  24 8 0  26 8 0  28 8 0  30 8 0  32 8 0  34 8 0  36 8 0  38 8 0  40 8 0  42 8 0  44 8 0  46 8 0  48 8 0  50 8 0  52 8 0  54 8 0  56 8 0  58 8 0  60 8 0  62 8 0  64 8 0  66 8 0  68 8 0  70 8 0  72 8 0  74 8 0  76 8 0  78 8 0  80 8 0  82 8 0  84 8 0  86 8 0  88 8 0  90 8 0  92 8 0  94 8 0  96 8 0  98 8 0  100 8 0  102 8 0  104 8 0  106 8 0  108 8 0  110 8 0  112 8 0  114 8 0  116 8 0  118 8 0  120 8 0  122 8 0  124 8 0  126 8 0  128 8 0  130 8 0  132 8 0  134 8 0  136 8 0  138 8 0  140 8 0  142 8 0  144 8 0  146 8 0  148 8 0  150 8 0  152 8 0  154 8 0  156 8 0  158 8 0  160 8 0  162 8 0  164 8 0  166 8 0  168 8 0  170 8 0  172 8 0  174 8 0  176 8 0  178 8 0  180 8 0  182 8 0  184 8 0  186 8 0  188 8 0  190 8 0  192 8 0  194 8 0  196 8 0  198 8 0  200 8 0  0 10 0  2 10 0  4 10 0  6 10 0  8 10 0  10 10 0  12 10 0  14 10 0  16 10 0  18 10 0  20 10 0  22 10 0  24 10 0  26 10 0  28 10 0  30 10 0  32 10 0  34 10 0  36 10 0  38 10 0  40 10 0  42 10 0  44 10 0  46 10 0  48 10 0  50 10 0  52 10 0  54 10 0  56 10 0  58 10 0  60 10 0  62 10 0  64 10 0  66 10 0  68 10 0  70 10 0  72 10 0  74 10 0  76 10 0  78 10 0  80 10 0  82 10 0  84 10 0  86 10 0  88 10 0  90 10 0  92 10 0  94 10 0  96 10 0  98 10 0  100 10 0  102 10 0  104 10 0  106 10 0  108 10 0  110 10 0  112 10 0  114 10 0  116 10 0  118 10 0  120 10 0  122 10 0  124 10 0  126 10 0  128 10 0  130 10 0  132 10 0  134 10 0  136 10 0  138 10 0  140 10 0  142 10 0  144 10 0  146 10 0  148 10 0  150 10 0  152 10 0  154 10 0  156 10 0  158 10 0  160 10 0  162 10 0  164 10 0  166 10 0  168 10 0  170 10 0  172 10 0  174 10 0  176 10 0  178 10 0  180 10 0  182 10 0  184 10 0  186 10 0  188 10 0  190 10 0  192 10 0  194 10 0  196 10 0  198 10 0  200 10 0  0 12 0  2 12 0  4 12 0  6 12 0  8 12 0  10 12 0  12 12 0  14 12 0  16 12 0  18 12 0  20 12 0  22 12 0  24 12 0  26 12 0  28 12 0  30 12 0  32 12 0  34 12 0  36 12 0  38 12 0  40 12 0  42 12 0  44 12 0  46 12 0  48 12 0  50 12 0  52 12 0  54 12 0  56 12 0  58 12 0  60 12 0  62 12 0  64 12 0  66 12 0  68 12 0  70 12 0  72 12 0  74 12 0  76 12 0  78 12 0  80 12 0  82 12 0  84 12 0  86 12 0  88 12 0  90 12 0  92 12 0  94 12 0  96 12 0  98 12 0  100 12 0  102 12 0  104 12 0  106 12 0  108 12 0  110 12 0  112 12 0  114 12 0  116 12 0  118 12 0  120 12 0  122 12 0  124 12 0  126 12 0  128 12 0  130 12 0  132 12 0  134 12 0  136 12 0  138 12 0  140 12 0  142 12 0  144 12 0  146 12 0  148 12 0  150 12 0  152 12 0  154 12 0  156 12 0  158 12 0  160 12 0  162 12 0  164 12 0  166 12 0  168 12 0  170 12 0  172 12 0  174 12 0  176 12 0  178 12 0  180 12 0  182 12 0  184 12 0  186 12 0  188 12 0  190 12 0  192 12 0  194 12 0  196 12 0  198 12 0  200 12 0  0 14 0  2 14 0  4 14 0  6 14 0  8 14 0  10 14 0  12 14 0  14 14 0  16 14 0  18 14 0  20 14 0  22 14 0  24 14 0  26 14 0  28 14 0  30 14 0  32 14 0  34 14 0  36 14 0  38 14 0  40 14 0  42 14 0  44 14 0  46 14 0  48 14 0  50 14 0  52 14 0  54 14 0  56 14 0  58 14 0  60 14 0  62 14 0  64 14 0  66 14 0  68 14 0  70 14 0  72 14 0  74 14 0  76 14 0  78 14 0  80 14 0  82 14 0  84 14 0  86 14 0  88 14 0  90 14 0  92 14 0  94 14 0  96 14 0  98 14 0  100 14 0  102 14 0  104 14 0  106 14 0  108 14 0  110 14 0  112 14 0  114 14 0  116 14 0  118 14 0  120 14 0  122 14 0  124 14 0  126 14 0  128 14 0  130 14 0  132 14 0  134 14 0  136 14 0  138 14 0  140 14 0  142 14 0  144 14 0  146 14 0  148 14 0  150 14 0  152 14 0  154 14 0  156 14 0  158 14 0  160 14 0  162 14 0  164 14 0  166 14 0  168 14 0  170 14 0  172 14 0  174 14 0  176 14 0  178 14 0  180 14 0  182 14 0  184 14 0  186 14 0  188 14 0  190 14 0  192 14 0  194 14 0  196 14 0  198 14 0  200 14 0  0 16 0  2 16 0  4 16 0  6 16 0  8 16 0  10 16 0  12 16 0  14 16 0  16 16 0  18 16 0  20 16 0  22 16 0  24 16 0  26 16 0  28 16 0  30 16 0  32 16 0  34 16 0  36 16 0  38 16 0  40 16 0  42 16 0  44 16 0  46 16 0  48 16 0  50 16 0  52 16 0  54 16 0  56 16 0  58 16 0  60 16 0  62 16 0  64 16 0  66 16 0  68 16 0  70 16 0  72 16 0  74 16 0  76 16 0  78 16 0  80 16 0  82 16 0  84 16 0  86 16 0  88 16 0  90 16 0  92 16 0  94 16 0  96 16 0  98 16 0  100 16 0  102 16 0  104 16 0  106 16 0  108 16 0  110 16 0  112 16 0  114 16 0  116 16 0  118 16 0  120 16 0  122 16 0  124 16 0  126 16 0  128 16 0  130 16 0  132 16 0  134 16 0  136 16 0  138 16 0  140 16 0  142 16 0  144 16 0  146 16 0  148 16 0  150 16 0  152 16 0  154 16 0  156 16 0  158 16 0  160 16 0  162 16 0  164 16 0  166 16 0  168 16 0  170 16 0  172 16 0  174 16 0  176 16 0  178 16 0  180 16 0  182 16 0  184 16 0  186 16 0  188 16 0  190 16 0  192 16 0  194 16 0  196 16 0  198 16 0  200 16 0  0 18 0  2 18 0  4 18 0  6 18 0  8 18 0  10 18 0  12 18 0  14 18 0  16 18 0  18 18 0  20 18 0  22 18 0  24 18 0  26 18 0  28 18 0  30 18 0  32 18 0  34 18 0  36 18 0  38 18 0  40 18 0  42 18 0  44 18 0  46 18 0  48 18 0  50 18 0  52 18 0  54 18 0  56 18 0  58 18 0  60 18 0  62 18 0  64 18 0  66 18 0  68 18 0  70 18 0  72 18 0  74 18 0  76 18 0  78 18 0  80 18 0  82 18 0  84 18 0  86 18 0  88 18 0  90 18 0  92 18 0  94 18 0  96 18 0  98 18 0  100 18 0  102 18 0  104 18 0  106 18 0  108 18 0  110 18 0  112 18 0  114 18 0  116 18 0  118 18 0  120 18 0  122 18 0  124 18 0  126 18 0  128 18 0  130 18 0  132 18 0  134 18 0  136 18 0  138 18 0  140 18 0  142 18 0  144 18 0  146 18 0  148 18 0  150 18 0  152 18 0  154 18 0  156 18 0  158 18 0  160 18 0  162 18 0  164 18 0  166 18 0  168 18 0  170 18 0  172 18 0  174 18 0  176 18 0  178 18 0  180 18 0  182 18 0  184 18 0  186 18 0  188 18 0  190 18 0  192 18 0  194 18 0  196 18 0  198 18 0  200 18 0  0 20 0  2 20 0  4 20 0  6 20 0  8 20 0  10 20 0  12 20 0  14 20 0  16 20 0  18 20 0  20 20 0  22 20 0  24 20 0  26 20 0  28 20 0  30 20 0  32 20 0  34 20 0  36 20 0  38 20 0  40 20 0  42 20 0  44 20 0  46 20 0  48 20 0  50 20 0  52 20 0  54 20 0  56 20 0  58 20 0  60 20 0  62 20 0  64 20 0  66 20 0  68 20 0  70 20 0  72 20 0  74 20 0  76 20 0  78 20 0  80 20 0  82 20 0  84 20 0  86 20 0  88 20 0  90 20 0  92 20 0  94 20 0  96 20 0  98 20 0  100 20 0  102 20 0  104 20 0  106 20 0  108 20 0  110 20 0  112 20 0  114 20 0  116 20 0  118 20 0  120 20 0  122 20 0  124 20 0  126 20 0  128 20 0  130 20 0  132 20 0  134 20 0  136 20 0  138 20 0  140 20 0  142 20 0  144 20 0  146 20 0  148 20 0  150 20 0  152 20 0  154 20 0  156 20 0
[...]
<PointData  Scalars="f_271-4"> 
<DataArray  type="Float64"  Name="f_271-4"  format="ascii">2.7351847850477752e-09  2.6311683480141726e-09  2.3468687671041287e-09  1.9559176647311653e-09  1.5536930151981190e-09  1.2294506148533683e-09  1.0446364976387099e-09  1.0218773488865454e-09  1.1442273632165604e-09  1.3625068740741497e-09  1.6087964539549012e-09  1.8137794752071485e-09  1.9239323663280361e-09  1.9133443944717167e-09  1.7863287249506963e-09  1.5708501608198527e-09  1.3066540843540711e-09  1.0333274831642652e-09  7.8203383314016490e-10  5.7203621114640749e-10  4.1117558646335147e-10  2.9876761351671014e-10  2.2943789885085114e-10  1.9665571104941617e-10  1.9499971626170683e-10  2.2061900177906739e-10  2.6998759127068930e-10  3.3773747162313067e-10  4.1482788837099834e-10  4.8832295558493897e-10  5.4348268759047877e-10  5.6782313165650083e-10  5.5567163828685226e-10  5.1115835260820946e-10  4.4804575926917631e-10  3.8624624311387927e-10  3.4656201217499429e-10  3.4603698651457022e-10  3.9564603717777045e-10  5.0014630149337723e-10  6.5814476417781555e-10  8.6047684769605791e-10  1.0872881959270387e-09  1.3069759042827497e-09  1.4805323788139656e-09  1.5717533574894079e-09  1.5593448816096370e-09  1.4447939936021353e-09  1.2518173173364447e-09  1.0178647701035570e-09  7.8220028444267752e-10  5.7592752791186739e-10  4.1645384100305538e-10  3.0163261936710722e-10  1.9028297010258537e-10  4.8447713791310303e-11  6.6685646630963927e-10  -1.2313102388261619e-08  2.1268229215956870e-07  -3.5568466373349029e-06  5.8943173641731949e-05  -1.0448510657568601e-03  1.7783098784889856e-01  7.6801651954263106e-01  9.6370327947292100e-01  9.9336778824795002e-01  9.9850415039074913e-01  9.9926033363213340e-01  9.9852125656294988e-01  9.9476610995701564e-01  9.7841391063585137e-01  8.9936539953273897e-01  5.5467037420994469e-01  1.2766359151626902e-01  1.7892656954659594e-02  2.4199924644399376e-03  3.3049291850251801e-04  4.5630654123509748e-05  6.3556004436664631e-06  8.9121480251549446e-07  1.2573616568400663e-07  1.7977997940005616e-08  2.8145102161326823e-09  7.8444718709520515e-10  6.7311609519464875e-10  8.8945899188039794e-10  1.1874348659510362e-09  1.4854840438748473e-09  1.6912101973616792e-09  1.6641138016243177e-09  1.1976038730308731e-09  3.6547280757935519e-10  2.3557597102877422e-11  3.2415334817248893e-13  6.7595936661507990e-15  1.6273668359500324e-16  -2.8540152159034756e-18  4.8446702498479867e-19  7.4755078780506499e-19  5.1677611087381223e-19  5.0406902233252212e-19  2.6463675029164584e-09  2.5465067312213142e-09  2.2734148375169845e-09  1.8974454456967807e-09  1.5098981755607021e-09  1.1964670922378563e-09  1.0164548198533073e-09  9.9209220647592248e-10  1.1076552804060879e-09  1.3163742242010132e-09  1.5532937936758470e-09  1.7518678782142407e-09  1.8604587089744921e-09  1.8537492372291026e-09  1.7353753396976897e-09  1.5317532425899610e-09  1.2807695993861759e-09  1.0203254556672093e-09  7.8034527935908864e-10  5.7936843844749585e-10  4.2496340875241440e-10  3.1650124553921470e-10  2.4885439764995990e-10  2.1580861151118256e-10  2.1224429189461650e-10  2.3456893405672093e-10  2.7950350434062416e-10  3.4199018357777060e-10  4.1343912270684844e-10  4.8153511532313017e-10  5.3226945911328331e-10  5.5384980103886910e-10  5.4106135449278405e-10  4.9810329405186124e-10  4.3837745006393109e-10  3.8110073946050815e-10  3.4622724483783345e-10  3.4998086064782911e-10  4.0265322686175422e-10  5.0848698354116047e-10  6.6575999000509816e-10  8.6523499215820636e-10  1.0873669223555735e-09  1.3013284939671038e-09  1.4692733757045204e-09  1.5562590320385909e-09  1.5419656385580710e-09  1.4282636398285177e-09  1.2385946848260746e-09  1.0096636767610251e-09  7.7987160237387354e-10  5.7982792328763182e-10  4.2794136869407385e-10  3.2773125033518966e-10  2.4488949650594992e-10  6.1005553231402913e-11  7.6132539440506126e-10  -1.0194920893738267e-08  1.3522608672317263e-07  -1.7679780210066643e-06  2.2753449367687931e-05  -2.4930014827850307e-04  1.8210079214127148e-01  7.6045270011623101e-01  9.6028177173216611e-01  9.9218565063641773e-01  9.9797749282022619e-01  9.9884075259179539e-01  9.9785077888756057e-01  9.9313154746329346e-01  9.7333628194588651e-01  8.7963173127984540e-01  5.0084760439955234e-01  1.0917683727786601e-01  1.5728347288209644e-02  2.1806017189881103e-03  3.0256672099183822e-04  4.2254825759923905e-05  5.9363645991278601e-06  8.3811875632248633e-07  1.1892139786211668e-07  1.7102686538043646e-08  2.7055648711632971e-09  7.6804432888263804e-10  6.5848049453059374e-10  8.6238357063462502e-10  1.1448851189991995e-09  1.4284967457203730e-09  1.6266207689585964e-09  1.6109631302206733e-09  1.1990368490245643e-09  4.1635212377083672e-10  3.3216301554212613e-11  6.7174086815143953e-13  2.0199664286612992e-14  7.5970050119544949e-16  -9.9357874307650571e-18  1.4345723232165281e-18  -6.7718958975010799e-18  -6.0793264774409022e-18  -5.9283476661054320e-18  2.3973499231539535e-09  2.3090604187358460e-09  2.0672336052152054e-09  1.7332248805650168e-09  1.3870814788527870e-09  1.1045793358386381e-09  9.3893245148924557e-10  9.1107023663128863e-10  1.0084566103499785e-09  1.1908632917423695e-09  1.4015133757093523e-09  1.5816220312643498e-09  1.6849713533506229e-09  1.6881505713247364e-09  1.5931781802662556e-09  1.4223662002768410e-09  1.2085181758467289e-09  9.8480101860412584e-10  7.7753606373048810e-10  6.0302221487636865e-10  4.6782254594107098e-10  3.7124517924439788e-10  3.0870463318484205e-10  2.7482025100142974e-10  2.6536545433239303e-10  2.7760085583658445e-10  3.0911447744326448e-10  3.5589815866664953e-10  4.1077530172813742e-10  4.6326378797659043e-10  5.0143063521808382e-10  5.1538368829378730e-10  5.0110450730543298e-10  4.6287324114808568e-10  4.1296702294157847e-10  3.6855779680818758e-10  3.4715672358891012e-10  3.6265706814071309e-10  4.2343382903504269e-10  5.3231101514619535e-10  6.8669013644940274e-10  8.7720286199445938e-10  1.0852753146514560e-09  1.2823855229129751e-09  1.4340779042445125e-09  1.5090512360929636e-09  1.4897589719047035e-09  1.3791186526602489e-09  1.1997211267243682e-09  9.8608175454771567e-10  7.7408786762062891e-10  5.9292965643392158e-10  4.6443187476551265e-10  4.1583687430529580e-10  4.9274753000241034e-10  6.0052817815510605e-10  -1.2304746461921783e-09  2.5478748071188449e-08  -4.1476356737060959e-07  6.7402144194682832e-06  -1.1350296577029826e-04  2.8897440301431524e-03  1.7437610598231190e-01  7.0976926292633047e-01  9.4335724054976722e-01  9.8651794474182075e-01  9.9532998384775107e-01  9.9668201449016691e-01  9.9460655878774218e-01  9.8575365103089685e-01  9.5174992658228452e-01  7.9947974829596258e-01  3.5216659786046917e-01  6.9303495878291155e-02  1.0824388187629218e-02  1.6011841428852213e-03  2.3257530729082164e-04  3.3581568653372745e-05  4.8396264801129973e-06  6.9726606264391392e-07  1.0064680814240199e-07  1.4739752498526775e-08  2.4136863473716942e-09  7.2679069135188144e-10  6.2076831143378900e-10  7.8959824238162593e-10  1.0290433404063256e-09  1.2725399691035286e-09  1.4483327283013572e-09  1.4568597807883953e-09  1.1703136720876879e-09  5.4738792617926649e-10  7.8277724713221469e-11  3.1193411279373290e-12  1.7617862854929024e-13  2.8688596911230219e-15  4.7927613679852366e-16  5.2852475457352657e-17  1.0824751393578211e-16  1.1132141087998245e-16  1.1061513668885102e-16  2.0351586262231741e-09  1.9634795783626470e-09  1.7667036152344815e-09  1.4936529053694417e-09  1.2085378625588812e-09  9.7291092726206227e-10  8.3090210100785903e-10  8.0098185253717762e-10  8.7453896964303664e-10  1.0202087678531659e-09  1.1927021110301793e-09  1.3444915076849577e-09  1.4376292348398962e-09  1.4521976113482311e-09  1.3887142296100630e-09  1.2642554641307565e-09  1.1046466109866202e-09  9.3617449177243777e-10  7.7954260092885515e-10  6.4714374403828563e-10  5.4332043604103453e-10  4.6659256137555449e-10  4.1267978707325690e-10  3.7724061803080355e-10  3.5750025403681653e-10  3.5237467289104304e-10  3.6127027434408483e-10  3.8227188053308876e-10  4.1071931316205685e-10  4.3907649603352428e-10  4.5849811214411292e-10  4.6172684691394924e-10  4.4620776369446329e-10  4.1598590122987112e-10  3.8134708520533846e-10  3.5619094147026979e-10  3.5427274004195006e-10  3.8600224349365611e-10  4.5697617518340727e-10  5.6805216901844615e-10  7.1553056133879277e-10  8.9010282847999643e-10  1.0749361943922594e-09  1.2452445605580712e-09  1.3718762919515656e-09  1.4290971457544555e-09  1.4034916154566305e-09  1.2994127872267428e-09  1.1379956618563739e-09  9.5030242053264036e-10  7.6830486009570941e-10  6.1896884185085073e-10  5.3024312617928533e-10  5.8076458001851210e-10  1.1169253149403916e-09  3.2394033397312476e-09  7.2359901538566374e-09  4.2150422180081460e-08  -4.6175086477280409e-07  9.2403285525586010e-06  -1.1691749844584838e-04  7.8859628355433288e-03  1.2229615063765807e-01  5.4107416384720097e-01  8.8173328940001305e-01  9.6554322195738285e-01  9.8466805557888892e-01  9.8776315356827016e-01  9.8205044212166970e-01  9.5979481570631520e-01  8.7955962049640501e-01  5.8811194266350220e-01  1.7892322031536245e-01  3.4605213708967818e-02  5.9919760934706813e-03  9.6944198260569432e-04  1.5088891915116909e-04  2.2965926793154551e-05  3.4487242935892948e-06  5.1364735335590247e-07  7.6310832154080720e-08  1.1553946754636960e-08  2.0283194562815183e-09  6.8114001630129764e-10  5.7590272062492582e-10  6.9281815151440777e-10  8.7030861058803926e-10  1.0564194281891024e-09  1.1976124361519906e-09  1.2252271230748021e-09  1.0629446691700466e-09  6.6540929214419693e-10  2.0086661115746535e-10  2.0989371968570461e-11  1.3241667396052235e-12  1.2731733745927659e-13  1.3423303283430065e-14  1.2681652971449188e-15  -1.1696263987240474e-15  -1.6342090526296875e-15  -1.7020475321910868e-15  1.6227601745595333e-09  1.5696508331612099e-09  1.4235403020867814e-09  1.2199265701975259e-09  1.0059050188356652e-09  8.2719830289665527e-10  7.1720666361063671e-10  6.9059859288989578e-10  7.4194125613014640e-10  8.4875790703463171e-10  9.7806322410534009e-10  1.0950504298421521e-09  1.1718569879275740e-09  1.1938360664426475e-09  1.1613632228347991e-09  1.0869483370849838e-09  9.8931464056649253e-10  8.8700836268813842e-10  7.9368849643107591e-10  7.1609265835539828e-10  6.5456463732200375e-10  6.0534330845116816e-10  5.6352362908944772e-10  5.2559877732724447e-10  4.9075941276539996e-10  4.6064066562254206e-10  4.3782289961368725e-10  4.2387180043141177e-10  4.1786165278637423e-10  4.1611668653717426e-10  4.1340674761608297e-10  4.0520455527254441e-10  3.9007962102869445e-10  3.7112780641860233e-10  3.5568319407395059e-10  3.5334672746940892e-10  3.7321286744273506e-10  4.2156351262258747e-10  5.0088954440995041e-10  6.1005819857258405e-10  7.4452230951060819e-10  8.9557755375937135e-10  1.0490056088570719e-09  1.1849364675552375e-09  1.2808417547637446e-09  1.3177082615338504e-09  1.2869262145201532e-09  1.1943187592348562e-09  1.0590295478557697e-09  9.0779837505422304e-10  7.6773562695404031e-10  6.6283464942959787e-10  6.2830502008662816e-10  8.1555603830781197e-10  2.1064597497615967e-09  9.4824135897260293e-09  4.8926200551577944e-08  2.3223117582098503e-07  1.7094049213577057e-06  1.2444960498471596e-05  4.8505582601103184e-04  8.3267123162413109e-03  5.7813319564531410e-02  2.6469509487025233e-01  6.6598337261414831e-01  8.7930287851183841e-01  9.3795516035922455e-01  9.4786980356657025e-01  9.2869882112342783e-01  8.5547902261611475e-01  6.3383737362990378e-01  2.6451198838258477e-01  6.6752658375883289e-02  1.4351284036974091e-02  2.7543462473154584e-03  4.9244736989950797e-04  8.3359335446230918e-05  1.3578350477959401e-05  2.1538016825901262e-06  3.3565998488436775e-07  5.1977684430505782e-08  8.3180500857230345e-09  1.6559228940825074e-09  6.5550875131186715e-10  5.4295474694441843e-10  5.9828295014653136e-10  7.0559239102047311e-10  8.2769420462026473e-10  9.2747869232628897e-10  9.6050808251453658e-10  8.8341245931227651e-10  6.7227024347352902e-10  3.6040005618433813e-10  1.0403087557293460e-10  1.5946128183306456e-11  2.0483188127941673e-12  3.2562317649575060e-13  7.7347220370539013e-14  3.7918742480442176e-14  2.9459264036735783e-14  2.7629173008869152e-14  1.2224103794411323e-09  1.1869286938935227e-09  1.0893322937268048e-09  9.5344531394609039e-10  8.1099624844161854e-10  6.9287022295694875e-10  6.2155144640819291e-10  6.0662510646260888e-10  6.4388716402756091e-10  7.1770321165086550e-10  8.0582999456137629e-10  8.8557823985517192e-10  9.3976307391946432e-10  9.6068401652373186e-10  9.5087099700671580e-10  9.2052463538260672e-10  8.8285783331835687e-10  8.4920026439166797e-10  8.2552523474406847e-10  8.1130395627595941e-10  8.0072861815501670e-10  7.8562815081921335e-10  7.5892631666248011e-10  7.1736710510479686e-10  6.6256235279093712e-10  6.0012952963683829e-10  5.3746962663895746e-10  4.8121157838877712e-10  4.3534187648633049e-10  4.0063888157632247e-10  3.7547150273593659e-10  3.5750955273885363e-10  3.4556892991322159e-10  3.4077994490434333e-10  3.4656845096214531e-10  3.6749565337884801e-10  4.0756612091817452e-10  4.6885424300850506e-10  5.5100241870985176e-10  6.5143205596902228e-10  7.6550417775476144e-10  8.8598831251282010e-10  1.0021470310834661e-09  1.0997601697088976e-09  1.1634075208626228e-09  1.1809713574589874e-09  1.1485395517076791e-09  1.0731289169049908e-09  9.7158813127284557e-10  8.6607429338274278e-10  7.7852365615542776e-10  7.2919159891328292e-10  7.5802030488592202e-10  1.0811397919287438e-09  3.1219259958986733e-09  1.6409114150694197e-08  1.0612859360159458e-07  7.6105079553126566e-07  6.0605977399311039e-06  6.3165836033120021e-05  6.4295436003187600e-04  4.3240733296192498e-03  2.1173881748203907e-02  8.3148018419930428e-02  2.6664368724382281e-01  5.4352748751261004e-01  7.1152146511148562e-01  7.4798035826059606e-01  6.8095762835191165e-01  4.8782170206540537e-01  2.3151331942212031e-01  7.5617163309832258e-02  2.0945475987901595e-02  4.9998310361487738e-03  1.0802397711028992e-03  2.1390341708767396e-04  3.9675173062383972e-05  6.9875654573948107e-06  1.1836654039378486e-06  1.9522403959860876e-07  3.2007829995488229e-08  5.6240280000369868e-09  1.3805011882990915e-09  6.6859088973759701e-10  5.3683847138032051e-10  5.2746856504560997e-10  5.6575655325653113e-10  6.2683192089056381e-10  6.8545456538199802e-10  7.1265369536650701e-10  6.8248145555926361e-10  5.8218140031482544e-10  4.2202241429817691e-10  2.4071729495316376e-10  1.0134462199344426e-10  3.4725954884729031e-11  1.2799073360713437e-11  5.6878195966069827e-12  3.0759007200186956e-12  2.0949696843095261e-12  1.8397776701493773e-12  8.8184229570391479e-10  8.6096780889915065e-10  8.0408236945388056e-10  7.2654461157055337e-10  6.4850115161080545e-10  5.8890308940901969e-10  5.6041133862504726e-10  5.6661286891818542e-10  6.0201105457579916e-10  6.5445175471946460e-10  7.0916397722943434e-10  7.5330909278001253e-10  7.7976767012605503e-10  7.8898978503176421e-10  7.8826885245315605e-10  7.8867624955689501e-10  8.0072424485398017e-10  8.3022699286433649e-10  8.7570952140969816e-10  9.2822096725155893e-10  9.7370011705600958e-10  9.9721798890019259e-10  9.8767869192932144e-10  9.4126528124992312e-10  8.6237443548983837e-10  7.6186828256366729e-10  6.5359938321480853e-10  5.5071097289137388e-10  4.6298575568936465e-10  3.9581577810390171e-10  3.5065670494643252e-10  3.2639380420381053e-10  3.2091808351498324e-10  3.3231371900412018e-10  3.5932217209311323e-10  4.0110383168342493e-10  4.5664140877306348e-10  5.2425324072061988e-10  6.0149893078093598e-10  6.8534801112587537e-10  7.7216314113247910e-10  8.5718346712621127e-10  9.3381021670901980e-10  9.9360377270692705e-10  1.0278332948145052e-09  1.0305031700395059e-09  1.0016178582162786e-09  9.4894004503225997e-10  8.8707212882595267e-10  8.3401253607041578e-10  8.0688414341074375e-10  8.2147829918875421e-10  9.1624465824705302e-10  1.3300797465426898e-09  3.7147863292851573e-09  1.9577366071488695e-08  1.3154387949381435e-07  9.5546384132452439e-07  7.3614114857014174e-06  5.4676605655514554e-05  3.2900844919740382e-04  1.5800126416493992e-03  6.3028454217320690e-03  2.1571103862575422e-02  6.1020381038594147e-02  1.3870962405096618e-01  2.2390461057190672e-01  2.5258703577573627e-01  2.0425935354665284e-01  1.1788819065514015e-01  5.0995210328233689e-02  1.8366156602202279e-02  5.6125939562331828e-03  1.5197676010624153e-03  3.6669419924651597e-04  8.0814998754906838e-05  1.6476376660215749e-05  3.1566142367661006e-06  5.7579642032402715e-07  1.0167581185289017e-07  1.8090789161972600e-08  3.7395767234175367e-09  1.2399187388597714e-09  7.2641594041762143e-10  5.6322934013608443e-10  4.9118052506032423e-10  4.6797902221908358e-10  4.7743882839431289e-10  5.0109919295172946e-10  5.1793105621265881e-10  5.0977267890394788e-10  4.6764188402048557e-10  3.9574221899696496e-10  3.0990190950584485e-10  2.2931944895139102e-10  1.6729372387154276e-10  1.2492972187963197e-10  9.5795045295204072e-11  7.6693871684933465e-11  6.6384300930987988e-11  6.3211722507852273e-11  6.2695587932898253e-10  6.1666451011753321e-10  5.8984598451698234e-10  5.5710530719220794e-10  5.3158244173501128e-10  5.2414318647919553e-10  5.3960482260853437e-10  5.7524023542646835e-10  6.2188721205757692e-10  6.6716344814290173e-10  6.9974051075696942e-10  7.1336978426905892e-10  7.0938887924106411e-10  6.9682907785899622e-10  6.8996669547527286e-10  7.0397760258530714e-10  7.4993349841251136e-10  8.3055429373614867e-10  9.3798028651657840e-10  1.0544583284982661e-09  1.1561838217634354e-09  1.2195188150029548e-09  1.2276833301530594e-09  1.1754843837841766e-09  1.0702969105208349e-09  9.2916362363570097e-10  7.7355640140244673e-10  6.2403085993332694e-10  4.9648240985231932e-10  4.0058016989882186e-10  3.4000403277867357e-10  3.1371699841300178e-10  3.1756749365945857e-10  3.4575905380867761e-10  3.9196520229438365e-10  4.5005702219242759e-10  5.1454199841550036e-10  5.8085322116562537e-10  6.4554777614737915e-10  7.0631800219213500e-10  7.6163947108736271e-10  8.1003223057712965e-10  8.4927519295225172e-10  8.7620720589863079e-10  8.8763019737862052e-10  8.8223927077855273e-10  8.6278589682999068e-10  8.3731698572774148e-10  8.1856651522787645e-10  8.2131698651710128e-10  8.5873569252183381e-10  9.4163957335190874e-10  1.0996689701264238e-09  1.5407842406134047e-09  3.7206338854049629e-09  1.7537868749115997e-08  1.0985138872938814e-07  7.2679741915114438e-07  4.6016274624276957e-06  2.5380755532151430e-05  1.1827431403480062e-04  4.7030534977289778e-04  1.6189611540687516e-03  4.7547845343067002e-03  1.1705830767741933e-02  2.3005070186001876e-02  3.4896978277362739e-02  3.9163165164838989e-02  3.2045634410483664e-02  1.9827587743488886e-02  9.7097848044774195e-03  3.9064779932543306e-03  1.3497699951065889e-03  4.0755218920555573e-04  1.1014007884534154e-04  2.6908892836829003e-05  6.0437815428363940e-06  1.2639168803463453e-06  2.4998218098821003e-07  4.8017393455239613e-08  9.7247650214710847e-09  2.6348223434568538e-09  1.2239522682993310e-09  8.2022113420599055e-10  6.1708471706154845e-10  4.8835503572443844e-10  4.1455208840592921e-10  3.8461568154949690e-10  3.8263034176024450e-10  3.9010120449284318e-10  3.9114575841963160e-10  3.7740209589110325e-10  3.5061835361681726e-10  3.2123181787932157e-10  3.0264449763027694e-10  3.0332377635949761e-10  3.2138237893801583e-10  3.4628119821809511e-10  3.6738643180151679e-10  3.8015275079861282e-10  3.8430480194795517e-10  4.6149311373722618e-10  4.5774009067294400e-10  4.5010808251217889e-10  4.4776489744715424e-10  4.6109305557927683e-10  4.9672253141579346e-10  5.5401072107966874e-10  6.2428917900506922e-10  6.9310090817621868e-10  7.4468781226521871e-10  7.6733405605339284e-10  7.5787692640769258e-10  7.2384678049215713e-10  6.8236071662634709e-10  6.5592453952558711e-10  6.6627879391638596e-10  7.2794239229350659e-10  8.4309832463604684e-10  9.9919880809404527e-10  1.1703115986779964e-09  1.3225561010715087