<?xml version="1.0"?>
<VTKFile type="UnstructuredGrid"  version="0.1"  >
<UnstructuredGrid>
<Piece  NumberOfPoints="20201" NumberOfCells="40000">
<Points>
<DataArray  type="Float64"  NumberOfComponents="3"  format="ascii">0 0 0  2 0 0  4 0 0  6 0 0  8 0 0  10 0 0  12 0 0  14 0 0  16 0 0  18 0 0  20 0 0  22 0 0  24 0 0  26 0 0  28 0 0  30 0 0  32 0 0  34 0 0  36 0 0  38 0 0  40 0 0  42 0 0  44 0 0  46 0 0  48 0 0  50 0 0  52 0 0  54 0 0  56 0 0  58 0 0  60 0 0  62 0 0  64 0 0  66 0 0  68 0 0  70 0 0  72 0 0  74 0 0  76 0 0  78 0 0  80 0 0  82 0 0  84 0 0  86 0 0  88 0 0  90 0 0  92 0 0  94 0 0  96 0 0  98 0 0  100 0 0  102 0 0  104 0 0  106 0 0  108 0 0  110 0 0  112 0 0  114 0 0  116 0 0  118 0 0  120 0 0  122 0 0  124 0 0  126 0 0  128 0 0  130 0 0  132 0 0  134 0 0  136 0 0  138 0 0  140 0 0  142 0 0  144 0 0  146 0 0  148 0 0  150 0 0  152 0 0  154 0 0  156 0 0  158 0 0  160 0 0  162 0 0  164 0 0  166 0 0  168 0 0  170 0 0  172 0 0  174 0 0  176 0 0  178 0 0  180 0 0  182 0 0  184 0 0  186 0 0  188 0 0  190 0 0  192 0 0  194 0 0  196 0 0  198 0 0  200 0 0  0 2 0  2 2 0  4 2 0  6 2 0  8 2 0  10 2 0  12 2 0  14 2 0  16 2 0  18 2 0  20 2 0  22 2 0  24 2 0  26 2 0  28 2 0  30 2 0  32 2 0  34 2 0  36 2 0  38 2 0  40 2 0  42 2 0  44 2 0  46 2 0  48 2 0  50 2 0  52 2 0  54 2 0  56 2 0  58 2 0  60 2 0  62 2 0  64 2 0  66 2 0  68 2 0  70 2 0  72 2 0  74 2 0  76 2 0  78 2 0  80 2 0  82 2 0  84 2 0  86 2 0  88 2 0  90 2 0  92 2 0  94 2 0  96 2 0  98 2 0  100 2 0  102 2 0  104 2 0  106 2 0  108 2 0  110 2 0  112 2 0  114 2 0  116 2 0  118 2 0  120 2 0  122 2 0  124 2 0  126 2 0  128 2 0  130 2 0  132 2 0  134 2 0  136 2 0  138 2 0  140 2 0  142 2 0  144 2 0  146 2 0  148 2 0  150 2 0  152 2 0  154 2 0  156 2 0  158 2 0  160 2 0  162 2 0  164 2 0  166 2 0  168 2 0  170 2 0  172 2 0  174 2 0  176 2 0  178 2 0  180 2 0  182 2 0  184 2 0  186 2 0  188 2 0  190 2 0  192 2 0  194 2 0  196 2 0  198 2 0  200 2 0  0 4 0  2 4 0  4 4 0  6 4 0  8 4 0  10 4 0  12 4 0  14 4 0  16 4 0  18 4 0  20 4 0  22 4 0  24 4 0  26 4 0  28 4 0  30 4 0  32 4 0  34 4 0  36 4 0  38 4 0  40 4 0  42 4 0  44 4 0  46 4 0  48 4 0  50 4 0  52 4 0  54 4 0  56 4 0  58 4 0  60 4 0  62 4 0  64 4 0  66 4 0  68 4 0  70 4 0  72 4 0  74 4 0  76 4 0  78 4 0  80 4 0  82 4 0  84 4 0  86 4 0  88 4 0  90 4 0  92 4 0  94 4 0  96 4 0  98 4 0  100 4 0  102 4 0  104 4 0  106 4 0  108 4 0  110 4 0  112 4 0  114 4 0  116 4 0  118 4 0  120 4 0  122 4 0  124 4 0  126 4 0  128 4 0  130 4 0  132 4 0  134 4 0  136 4 0  138 4 0  140 4 0  142 4 0  144 4 0  146 4 0  148 4 0  150 4 0  152 4 0  154 4 0  156 4 0  158 4 0  160 4 0  162 4 0  164 4 0  166 4 0  168 4 0  170 4 0  172 4 0  174 4 0  176 4 0  178 4 0  180 4 0  182 4 0  184 4 0  186 4 0  188 4 0  190 4 0  192 4 0  194 4 0  196 4 0  198 4 0  200 4 0  0 6 0  2 6 0  4 6 0  6 6 0  8 6 0  10 6 0  12 6 0  14 6 0  16 6 0  18 6 0  20 6 0  22 6 0  24 6 0  26 6 0  28 6 0  30 6 0  32 6 0  34 6 0  36 6 0  38 6 0  40 6 0  42 6 0  44 6 0  46 6 0  48 6 0  50 6 0  52 6 0  54 6 0  56 6 0  58 6 0  60 6 0  62 6 0  64 6 0  66 6 0  68 6 0  70 6 0  72 6 0  74 6 0  76 6 0  78 6 0  80 6 0  82 6 0  84 6 0  86 6 0  88 6 0  90 6 0  92 6 0  94 6 0  96 6 0  98 6 0  100 6 0  102 6 0  104 6 0  106 6 0  108 6 0  110 6 0  112 6 0  114 6 0  116 6 0  118 6 0  120 6 0  122 6 0  124 6 0  126 6 0  128 6 0  130 6 0  132 6 0  134 6 0  136 6 0  138 6 0  140 6 0  142 6 0  144 6 0  146 6 0  148 6 0  150 6 0  152 6 0  154 6 0  156 6 0  158 6 0  160 6 0  162 6 0  164 6 0  166 6 0  168 6 0  170 6 0  172 6 0  174 6 0  176 6 0  178 6 0  180 6 0  182 6 0  184 6 0  186 6 0  188 6 0  190 6 0  192 6 0  194 6 0  196 6 0  198 6 0  200 6 0  0 8 0  2 8 0  4 8 0  6 8 0  8 8 0  10 8 0  12 8 0  14 8 0  16 8 0  18 8 0  20 8 0  22 8 0  24 8 0  26 8 0  28 8 0  30 8 0  32 8 0  34 8 0  36 8 0  38 8 0  40 8 0  42 8 0  44 8 0  46 8 0  48 8 0  50 8 0  52 8 0  54 8 0  56 8 0  58 8 0  60 8 0  62 8 0  64 8 0  66 8 0  68 8 0  70 8 0  72 8 0  74 8 0  76 8 0  78 8 0  80 8 0  82 8 0  84 8 0  86 8 0  88 8 0  90 8 0  92 8 0  94 8 0  96 8 0  98 8 0  100 8 0  102 8 0  104 8 0  106 8 0  108 8 0  110 8 0  112 8 0  114 8 0  116 8 0  118 8 0  120 8 0  122 8 0  124 8 0  126 8 0  128 8 0  130 8 0  132 8 0  134 8 0  136 8 0  138 8 0  140 8 0  142 8 0  144 8 0  146 8 0  148 8 0  150 8 0  152 8 0  154 8 0  156 8 0  158 8 0  160 8 0  162 8 0  164 8 0  166 8 0  168 8 0  170 8 0  172 8 0  174 8 0  176 8 0  178 8 0  180 8 0  182 8 0  184 8 0  186 8 0  188 8 0  190 8 0  192 8 0  194 8 0  196 8 0  198 8 0  200 8 0  0 10 0  2 10 0  4 10 0  6 10 0  8 10 0  10 10 0  12 10 0  14 10 0  16 10 0  18 10 0  20 10 0  22 10 0  24 10 0  26 10 0  28 10 0  30 10 0  32 10 0  34 10 0  36 10 0  38 10 0  40 10 0  42 10 0  44 10 0  46 10 0  48 10 0  50 10 0  52 10 0  54 10 0  56 10 0  58 10 0  60 10 0  62 10 0  64 10 0  66 10 0  68 10 0  70 10 0  72 10 0  74 10 0  76 10 0  78 10 0  80 10 0  82 10 0  84 10 0  86 10 0  88 10 0  90 10 0  92 10 0  94 10 0  96 10 0  98 10 0  100 10 0  102 10 0  104 10 0  106 10 0  108 10 0  110 10 0  112 10 0  114 10 0  116 10 0  118 10 0  120 10 0  122 10 0  124 10 0  126 10 0  128 10 0  130 10 0  132 10 0  134 10 0  136 10 0  138 10 0  140 10 0  142 10 0  144 10 0  146 10 0  148 10 0  150 10 0  152 10 0  154 10 0  156 10 0  158 10 0  160 10 0  162 10 0  164 10 0  166 10 0  168 10 0  170 10 0  172 10 0  174 10 0  176 10 0  178 10 0  180 10 0  182 10 0  184 10 0  186 10 0  188 10 0  190 10 0  192 10 0  194 10 0  196 10 0  198 10 0  200 10 0  0 12 0  2 12 0  4 12 0  6 12 0  8 12 0  10 12 0  12 12 0  14 12 0  16 12 0  18 12 0  20 12 0  22 12 0  24 12 0  26 12 0  28 12 0  30 12 0  32 12 0  34 12 0  36 12 0  38 12 0  40 12 0  42 12 0  44 12 0  46 12 0  48 12 0  50 12 0  52 12 0  54 12 0  56 12 0  58 12 0  60 12 0  62 12 0  64 12 0  66 12 0  68 12 0  70 12 0  72 12 0  74 12 0  76 12 0  78 12 0  80 12 0  82 12 0  84 12 0  86 12 0  88 12 0  90 12 0  92 12 0  94 12 0  96 12 0  98 12 0  100 12 0  102 12 0  104 12 0  106 12 0  108 12 0  110 12 0  112 12 0  114 12 0  116 12 0  118 12 0  120 12 0  122 12 0  124 12 0  126 12 0  128 12 0  130 12 0  132 12 0  134 12 0  136 12 0  138 12 0  140 12 0  142 12 0  144 12 0  146 12 0  148 12 0  150 12 0  152 12 0  154 12 0  156 12 0  158 12 0  160 12 0  162 12 0  164 12 0  166 12 0  168 12 0  170 12 0  172 12 0  174 12 0  176 12 0  178 12 0  180 12 0  182 12 0  184 12 0  186 12 0  188 12 0  190 12 0  192 12 0  194 12 0  196 12 0  198 12 0  200 12 0  0 14 0  2 14 0  4 14 0  6 14 0  8 14 0  10 14 0  12 14 0  14 14 0  16 14 0  18 14 0  20 14 0  22 14 0  24 14 0  26 14 0  28 14 0  30 14 0  32 14 0  34 14 0  36 14 0  38 14 0  40 14 0  42 14 0  44 14 0  46 14 0  48 14 0  50 14 0  52 14 0  54 14 0  56 14 0  58 14 0  60 14 0  62 14 0  64 14 0  66 14 0  68 14 0  70 14 0  72 14 0  74 14 0  76 14 0  78 14 0  80 14 0  82 14 0  84 14 0  86 14 0  88 14 0  90 14 0  92 14 0  94 14 0  96 14 0  98 14 0  100 14 0  102 14 0  104 14 0  106 14 0  108 14 0  110 14 0  112 14 0  114 14 0  116 14 0  118 14 0  120 14 0  122 14 0  124 14 0  126 14 0  128 14 0  130 14 0  132 14 0  134 14 0  136 14 0  138 14 0  140 14 0  142 14 0  144 14 0  146 14 0  148 14 0  150 14 0  152 14 0  154 14 0  156 14 0  158 14 0  160 14 0  162 14 0  164 14 0  166 14 0  168 14 0  170 14 0  172 14 0  174 14 0  176 14 0  178 14 0  180 14 0  182 14 0  184 14 0  186 14 0  188 14 0  190 14 0  192 14 0  194 14 0  196 14 0  198 14 0  200 14 0  0 16 0  2 16 0  4 16 0  6 16 0  8 16 0  10 16 0  12 16 0  14 16 0  16 16 0  18 16 0  20 16 0  22 16 0  24 16 0  26 16 0  28 16 0  30 16 0  32 16 0  34 16 0  36 16 0  38 16 0  40 16 0  42 16 0  44 16 0  46 16 0  48 16 0  50 16 0  52 16 0  54 16 0  56 16 0  58 16 0  60 16 0  62 16 0  64 16 0  66 16 0  68 16 0  70 16 0  72 16 0  74 16 0  76 16 0  78 16 0  80 16 0  82 16 0  84 16 0  86 16 0  88 16 0  90 16 0  92 16 0  94 16 0  96 16 0  98 16 0  100 16 0  102 16 0  104 16 0  106 16 0  108 16 0  110 16 0  112 16 0  114 16 0  116 16 0  118 16 0  120 16 0  122 16 0  124 16 0  126 16 0  128 16 0  130 16 0  132 16 0  134 16 0  136 16 0  138 16 0  140 16 0  142 16 0  144 16 0  146 16 0  148 16 0  150 16 0  152 16 0  154 16 0  156 16 0  158 16 0  160 16 0  162 16 0  164 16 0  166 16 0  168 16 0  170 16 0  172 16 0  174 16 0  176 16 0  178 16 0  180 16 0  182 16 0  184 16 0  186 16 0  188 16 0  190 16 0  192 16 0  194 16 0  196 16 0  198 16 0  200 16 0  0 18 0  2 18 0  4 18 0  6 18 0  8 18 0  10 18 0  12 18 0  14 18 0  16 18 0  18 18 0  20 18 0  22 18 0  24 18 0  26 18 0  28 18 0  30 18 0  32 18 0  34 18 0  36 18 0  38 18 0  40 18 0  42 18 0  44 18 0  46 18 0  48 18 0  50 18 0  52 18 0  54 18 0  56 18 0  58 18 0  60 18 0  62 18 0  64 18 0  66 18 0  68 18 0  70 18 0  72 18 0  74 18 0  76 18 0  78 18 0  80 18 0  82 18 0  84 18 0  86 18 0  88 18 0  90 18 0  92 18 0  94 18 0  96 18 0  98 18 0  100 18 0  102 18 0  104 18 0  106 18 0  108 18 0  110 18 0  112 18 0  114 18 0  116 18 0  118 18 0  120 18 0  122 18 0  124 18 0  126 18 0  128 18 0  130 18 0  132 18 0  134 18 0  136 18 0  138 18 0  140 18 0  142 18 0  144 18 0  146 18 0  148 18 0  150 18 0  152 18 0  154 18 0  156 18 0  158 18 0  160 18 0  162 18 0  164 18 0  166 18 0  168 18 0  170 18 0  172 18 0  174 18 0  176 18 0  178 18 0  180 18 0  182 18 0  184 18 0  186 18 0  188 18 0  190 18 0  192 18 0  194 18 0  196 18 0  198 18 0  200 18 0  0 20 0  2 20 0  4 20 0  6 20 0  8 20 0  10 20 0  12 20 0  14 20 0  16 20 0  18 20 0  20 20 0  22 20 0  24 20 0  26 20 0  28 20 0  30 20 0  32 20 0  34 20 0  36 20 0  38 20 0  40 20 0  42 20 0  44 20 0  46 20 0  48 20 0  50 20 0  52 20 0  54 20 0  56 20 0  58 20 0  60 20 0  62 20 0  64 20 0  66 20 0  68 20 0  70 20 0  72 20 0  74 20 0  76 20 0  78 20 0  80 20 0  82 20 0  84 20 0  86 20 0  88 20 0  90 20 0  92 20 0  94 20 0  96 20 0  98 20 0  100 20 0  102 20 0  104 20 0  106 20 0  108 20 0  110 20 0  112 20 0  114 20 0  116 20 0  118 20 0  120 20 0  122 20 0  124 20 0  126 20 0  128 20 0  130 20 0  132 20 0  134 20 0  136 20 0  138 20 0  140 20 0  142 20 0  144 20 0  146 20 0  148 20 0  150 20 0  152 20 0  154 20 0  156 20 0
[...]
<PointData  Scalars="f_271-4"> 
<DataArray  type="Float64"  Name="f_271-4"  format="ascii">1.2153831322010084e-14  1.1866903441976106e-14  1.1071828727116841e-14  9.9477142238077331e-15  8.7389223355764790e-15  7.6920333361893836e-15  6.9963700649439291e-15  6.7434133096737246e-15  6.9133970158295579e-15  7.3895169091432000e-15  7.9936013672069474e-15  8.5326792769685919e-15  8.8440914699239872e-15  8.8280555829915184e-15  8.4608698641454899e-15  7.7880814408036006e-15  6.9027922397749324e-15  5.9176916039490099e-15  4.9394370635481727e-15  4.0512783173830282e-15  3.3059395832729026e-15  2.7273382769711293e-15  2.3176522590482717e-15  2.0657438163619514e-15  1.9537313574368801e-15  1.9600969304350791e-15  2.0595775429323734e-15  2.2216270253153680e-15  2.4099306606327169e-15  2.5850159405662699e-15  2.7105399550510236e-15  2.7619107920408985e-15  2.7343744276259123e-15  2.6473524256105222e-15  2.5429237585552245e-15  2.4784317624338702e-15  2.5152163493339728e-15  2.7063890549567436e-15  3.0860530533666887e-15  3.6610818432384803e-15  4.4057229760698401e-15  5.2596770773823931e-15  6.1314978335720110e-15  6.9097645510976949e-15  7.4836255349443661e-15  7.7741838477144922e-15  7.7878632818105388e-15  7.7427111335080800e-15  8.3950755586003359e-15  1.1562523064475205e-14  1.9379628558199986e-14  2.8974740059194797e-14  4.5652174954286577e-14  8.0467362902725313e-13  -1.6436359625502947e-11  2.9238107795945625e-10  -5.1463994505377536e-09  9.0296246137012697e-08  -1.5836781247378089e-06  2.7886199778478679e-05  -5.0383708106290078e-04  1.1332191204599424e-02  3.3894777942293436e-01  8.5478391333678405e-01  9.7764858339839444e-01  9.9619744080904649e-01  9.9931546020496265e-01  9.9985367607487596e-01  9.9991023373341570e-01  9.9975047905842962e-01  9.9898089573653226e-01  9.9546820588232521e-01  9.7857257026495326e-01  8.8933717931286205e-01  5.0920826937383545e-01  1.0898713847964159e-01  1.5530436089245113e-02  2.1749986883270430e-03  3.0660030865651655e-04  4.3541058989579350e-05  6.2221386669166950e-06  8.9357845652812959e-07  1.2883127885830357e-07  1.8631529362862519e-08  2.7010572750056299e-09  3.9233546306959379e-10  5.7077402972271554e-11  8.3139784072310198e-12  1.1993373269630223e-12  1.4083372035762115e-13  3.3529434455564678e-15  -8.7351630863934906e-17  5.1114034353135547e-18  -2.6385713273727779e-19  1.3965202875980943e-20  -7.2875259677948413e-22  3.8901433837325585e-23  -2.1312612781829169e-24  1.7328071797198087e-25  1.7622190190586365e-26  2.6057463829174525e-26  1.1867528578625172e-14  1.1589127504292683e-14  1.0817611783706984e-14  9.7266040739385387e-15  8.5530564556103086e-15  7.5361937529196271e-15  6.8598611750969242e-15  6.6131337958937782e-15  6.7772515490301286e-15  7.2393339604192963e-15  7.8269298331344603e-15  8.3531573348646748e-15  8.6604437348114205e-15  8.6520957921206138e-15  8.3050800202899021e-15  7.6633523339317582e-15  6.8167596270283641e-15  5.8738657428493326e-15  4.9370994773174838e-15  4.0859762168973486e-15  3.3703585387642948e-15  2.8123500495924291e-15  2.4133799263085674e-15  2.1625359817401934e-15  2.0429825185065670e-15  2.0348890452741126e-15  2.1151428291814607e-15  2.2556367132424928e-15  2.4225981848863739e-15  2.5789787537810527e-15  2.6904751553108482e-15  2.7338666241491045e-15  2.7048643805871779e-15  2.6223378937436569e-15  2.5268665620123232e-15  2.4735978956352501e-15  2.5213539515819035e-15  2.7208157057584293e-15  3.1041126913524533e-15  3.6768962818192719e-15  4.4131581377120608e-15  5.2534349047250486e-15  6.1082088954257767e-15  6.8689403905339980e-15  7.4285897382809186e-15  7.7148380607063927e-15  7.7564911242446433e-15  7.8807357545854910e-15  9.3742498119582609e-15  1.6278504799433338e-14  3.7305706508370635e-14  7.4520696737936080e-14  8.4507995894714577e-14  9.0095571086038775e-13  -1.8047444200063473e-11  3.1382031345784155e-10  -5.4607952826710850e-09  9.5306184322153999e-08  -1.6672479245062079e-06  2.9317508614699030e-05  -5.3007589440955409e-04  1.2152523638631080e-02  3.4022964399939798e-01  8.5347341290986012e-01  9.7707322446191347e-01  9.9600184286727156e-01  9.9924576751400518e-01  9.9981872900424040e-01  9.9987193500834282e-01  9.9966647147781484e-01  9.9873161882219852e-01  9.9462091571629996e-01  9.7535431847314746e-01  8.7476006263179618e-01  4.7061037078751911e-01  9.6946206636696744e-02  1.4052522435308544e-02  1.9984781625627204e-03  2.8476163615906257e-04  4.0769503229483301e-05  5.8634004993764577e-06  8.4643367231572234e-07  1.2256069545182139e-07  1.7789373568984126e-08  2.5870503887264090e-09  3.7679935332159290e-10  5.4948476212890951e-11  8.0214805078276959e-12  1.1622246225906459e-12  1.4197795992393715e-13  4.5221802191484653e-15  -1.0774272342780616e-16  6.7922199516007521e-18  -3.5617051835176282e-19  1.9494012095602958e-20  -9.8022974025898290e-22  4.5898726311493765e-23  -1.8281571411872538e-24  -1.3097879969398426e-25  -1.3078500112693790e-25  -1.2863213721083018e-25  1.1053352670483780e-14  1.0799286849887169e-14  1.0095079896794238e-14  9.0988805283725342e-15  8.0266813370644398e-15  7.0968078176540017e-15  6.4773968842052089e-15  6.2504071218237875e-15  6.3995823105163688e-15  6.8228596948027720e-15  7.3638334991414532e-15  7.8529094610960032e-15  8.1471672896740418e-15  8.1590660372175040e-15  7.8679308151891419e-15  7.3136243757359764e-15  6.5770304835571389e-15  5.7550596992111984e-15  4.9379588068855690e-15  4.1942718654041270e-15  3.5652648836424506e-15  3.0674307316542394e-15  2.6997301668092684e-15  2.4517400012535851e-15  2.3096559636520833e-15  2.2586825370240595e-15  2.2821673045271318e-15  2.3593072191968069e-15  2.4638699377500369e-15  2.5658972226467994e-15  2.6369441499666421e-15  2.6576140511319648e-15  2.6247626823328806e-15  2.5554521167881289e-15  2.4857503637170449e-15  2.4643491560538669e-15  2.5427690785397564e-15  2.7647280916592386e-15  3.1567872701831935e-15  3.7212531959774291e-15  4.4315875782304354e-15  5.2309424587557448e-15  6.0355324088401726e-15  6.7452423379440852e-15  7.2641148426822591e-15  7.5392398895541151e-15  7.6682182963810510e-15  8.3306901858332790e-15  1.2651964536399140e-14  3.3417841998337966e-14  1.1384847350341799e-13  3.3969932075832780e-13  6.1700242030978918e-13  5.1810513800309830e-13  -1.6449349094030581e-11  3.2491746324059969e-10  -5.9657566510847114e-09  1.0639028366782835e-07  -1.8680066793460095e-06  3.2701784359146532e-05  -5.9094670151649373e-04  1.4738770902834340e-02  3.3524695591805065e-01  8.4400835327416501e-01  9.7411961091851162e-01  9.9507618081776283e-01  9.9891254848014421e-01  9.9964271260980397e-01  9.9968249564348277e-01  9.9928432745700402e-01  9.9767079027818584e-01  9.9118371591160048e-01  9.6269066881813803e-01  8.2062859527187082e-01  3.6317307667443988e-01  6.8721915398996636e-02  1.0480422464914065e-02  1.5541665092987280e-03  2.2843048696406709e-04  3.3491946118856317e-05  4.9085345576221224e-06  7.1958085845828059e-07  1.0553789157334465e-07  1.5486072736757784e-08  2.2732524016338841e-09  3.3380114835515376e-10  4.9027888696986242e-11  7.2040201640133604e-12  1.0551761406382410e-12  1.4069636553643247e-13  8.2456811618558845e-15  -1.0554373084615116e-16  1.0331760182557250e-17  -5.5385535654724787e-19  4.0953053182380405e-20  -2.6255383100243005e-21  1.7547661061549027e-22  -1.4393726001984626e-23  -1.4696681697443311e-25  -2.6312378130158869e-25  -6.8894423215873803e-27  9.8347404479965103e-15  9.6173794866742107e-15  9.0149166967516498e-15  8.1627127189897918e-15  7.2457355034021047e-15  6.4510830841076430e-15  5.9229770559503301e-15  5.7318750940322567e-15  5.8641621305081667e-15  6.2329037548086327e-15  6.7050071264573087e-15  7.1366446248418278e-15  7.4073910294676148e-15  7.4445317792991878e-15  7.2323417495564590e-15  6.8059073379707570e-15  6.2336273510257676e-15  5.5952391911910308e-15  4.9622932618105295e-15  4.3858356134943938e-15  3.8928474122983366e-15  3.4900169608828924e-15  3.1715522019021018e-15  2.9272846823847009e-15  2.7481227743198773e-15  2.6275395161420680e-15  2.5596222351705260e-15  2.5356374663802557e-15  2.5415938605814485e-15  2.5587452152511217e-15  2.5675840225888753e-15  2.5541953445333466e-15  2.5165889966206602e-15  2.4683844928655014e-15  2.4381347726859388e-15  2.4642210968604435e-15  2.5868095299954751e-15  2.8390535938437330e-15  3.2393343992015589e-15  3.7853741190343966e-15  4.4504662357534314e-15  5.1824182780567254e-15  5.9067843952922975e-15  6.5367548904759145e-15  6.9936410768036938e-15  7.2553914120549167e-15  7.5359377362737141e-15  9.1548584694274543e-15  1.8901310090531007e-14  6.9665535945738263e-14  3.0618953341578368e-13  1.2478700422210502e-12  3.8440674829059640e-12  6.3899776121135116e-12  -3.3129551207826000e-11  5.3998213875783937e-10  -8.2851286952778533e-09  1.2804724934575346e-07  -2.0126960679143014e-06  3.2584836823940537e-05  -5.6457139010710974e-04  1.9143406339629639e-02  2.9661951275873627e-01  8.0492917209724169e-01  9.6362093192231013e-01  9.9189289622836385e-01  9.9769115183046553e-01  9.9893910289953114e-01  9.9893687450548074e-01  9.9793526943914945e-01  9.9432149900078293e-01  9.8099487999819535e-01  9.2698244120954565e-01  6.8598017056646610e-01  2.2175932421814093e-01  3.9901270814513681e-02  6.5415972722129663e-03  1.0303362307325604e-03  1.5884950746477303e-04  2.4188104383779879e-05  3.6548615537193132e-06  5.4943619215962884e-07  8.2300214596165569e-08  1.2294965645064289e-08  1.8329637445229781e-09  2.7280537569326760e-10  4.0547953239248905e-11  6.0222385698514869e-12  8.9430674918333261e-13  1.2915133609146520e-13  1.3261668837411569e-14  2.6051162954567131e-16  7.2172644719974336e-18  4.4349279903504774e-19  1.5192021678848999e-20  1.5053094573164175e-21  2.8300862785652263e-22  1.3736230453952330e-22  8.3992524100368122e-23  5.4266614918441325e-23  4.5269464268090287e-23  8.3849466780053862e-15  8.2118166795422934e-15  7.7323772121017843e-15  7.0555659044332322e-15  6.3300822751208654e-15  5.7059728601270699e-15  5.2982527560217555e-15  5.1621003586095608e-15  5.2849457489851565e-15  5.5958145686758462e-15  5.9879694654867716e-15  6.3479695306042475e-15  6.5831603475718343e-15  6.6405627212678173e-15  6.5130236007954499e-15  6.2325375369103834e-15  5.8544778716925279e-15  5.4387407329261395e-15  5.0338313197437233e-15  4.6679915363097230e-15  4.3485460215906559e-15  4.0678540683979348e-15  3.8124524638297487e-15  3.5715585583300496e-15  3.3420099498567934e-15  3.1284959165163092e-15  2.9398946651141861e-15  2.7839621574698592e-15  2.6630456360642216e-15  2.5728349460400136e-15  2.5047393524438456e-15  2.4508805891491938e-15  2.4095693935087542e-15  2.3889344602267501e-15  2.4071593028488765e-15  2.4891613850860763e-15  2.6608334370730528e-15  2.9425422089544736e-15  3.3432854202137123e-15  3.8561801489769250e-15  4.4555364691187766e-15  5.0961096915704642e-15  5.7159767030527916e-15  6.2454044040980544e-15  6.6273350152121944e-15  6.8787470123390875e-15  7.3693892790371832e-15  1.0336015294276162e-14  2.8267140888361559e-14  1.2902540832902507e-13  6.6563265452228302e-13  3.3301608394593902e-12  1.4923537649347174e-11  5.0382321626114719e-11  1.0685296782323898e-10  -1.1372823429168043e-10  1.8462798007929114e-09  -1.9173448951306412e-08  1.4191581086096901e-07  8.1578979999674183e-07  7.3454793719109648e-05  2.1717199287956398e-02  2.0281576363343437e-01  6.8135344247674612e-01  9.2895735734787421e-01  9.8085879327965220e-01  9.9307036390543257e-01  9.9598577752364181e-01  9.9583996063990410e-01  9.9288730436383077e-01  9.8297546198798447e-01  9.4971809615286973e-01  8.1841638624648161e-01  4.2606891392610058e-01  1.0342786074039424e-01  1.9657048504229599e-02  3.4778275949709828e-03  5.8837054412538175e-04  9.6316391478655188e-05  1.5409446853918659e-05  2.4254790018255732e-06  3.7728284808315599e-07  5.8169213188699871e-08  8.9076026409448201e-09  1.3567107667246211e-09  2.0573949544863617e-10  3.1089288736440226e-11  4.6864617562144989e-12  7.0696281576848338e-13  1.0733364798595604e-13  1.5488279817073931e-14  1.4123543915816377e-15  5.7223147215689546e-17  4.8878072485718592e-18  3.5329222789843597e-19  3.7168977746585441e-20  -5.0759933550530570e-23  -2.7512570378469844e-21  -2.2459893631861461e-21  -1.6596526169267386e-21  -1.4548026349370134e-21  6.8888621327906886e-15  6.7622651771262880e-15  6.4128681359345224e-15  5.9233496854061572e-15  5.4059304967871649e-15  4.9725828892096335e-15  4.7070830212226013e-15  4.6464763346108103e-15  4.7761222549851169e-15  5.0384022585080672e-15  5.3515966096101231e-15  5.6330781808028734e-15  5.8202247118898974e-15  5.8834710456001850e-15  5.8285107613256212e-15  5.6880933155486740e-15  5.5070248486410467e-15  5.3257852686804497e-15  5.1680712366986733e-15  5.0357540902212115e-15  4.9119707358587373e-15  4.7703346265504472e-15  4.5864414944705286e-15  4.3474780684596092e-15  4.0568508966687117e-15  3.7328449971971646e-15  3.4025557022504113e-15  3.0938626525671909e-15  2.8285355550033475e-15  2.6187075530245017e-15  2.4673984923546044e-15  2.3721828081962192e-15  2.3300612514030447e-15  2.3414273922622937e-15  2.4116772665695436e-15  2.5501219835999681e-15  2.7668825713128922e-15  3.0689201957826476e-15  3.4561873902761880e-15  3.9184180167150947e-15  4.4328516678722961e-15  4.9635256287910371e-15  5.4634893943300363e-15  5.8823535076023874e-15  6.1866081779829719e-15  6.4348477941308524e-15  7.1683542572284293e-15  1.1688896140237286e-14  3.9534696923871303e-14  2.0542310274748916e-13  1.1728831437761068e-12  6.6782447567525576e-12  3.6736055267993501e-11  1.8865439067872680e-10  8.2659837943835381e-10  2.9194458090617675e-09  1.1064428250684486e-08  3.3948712266354072e-08  1.2059106084296042e-06  9.8586394643709335e-06  1.2151815265346384e-03  1.5946126476725976e-02  9.8108437916447577e-02  4.1205331681473817e-01  8.0477242301975138e-01  9.4019158313072959e-01  9.7376092767171196e-01  9.8273678872223336e-01  9.8204149847641731e-01  9.7195181149924204e-01  9.4045279007378846e-01  8.3586749705304064e-01  5.3066207433758061e-01  1.7235911369392737e-01  3.9657958309760682e-02  8.2859780723603602e-03  1.6013824731731772e-03  2.9269810047648296e-04  5.1296239816676525e-05  8.6994759783774677e-06  1.4387938991254124e-06  2.3342637712452544e-07  3.7310281875325874e-08  5.8939763859680510e-09  9.2235666041422353e-10  1.4323736529816018e-10  2.2105106418874860e-11  3.3957808383029839e-12  5.2179849063290769e-13  8.1877733084583520e-14  1.3991409293599996e-14  2.7051399911531833e-15  4.6385166347247452e-16  5.8364936367816450e-17  6.2481297801877567e-18  8.4478175925945698e-19  2.0454279547767083e-19  9.1407059957184182e-20  5.5120872777375737e-20  3.9192784443246573e-20  3.4463784582948779e-20  5.5064244384180200e-15  5.4240143693943721e-15  5.1988832174679198e-15  4.8907337611866375e-15  4.5793110542123481e-15  4.3416574871536472e-15  4.2313306159866953e-15  4.2656147377278718e-15  4.4238728577611758e-15  4.6566947991077836e-15  4.9024600221343835e-15  5.1060557109180361e-15  5.2341350911423719e-15  5.2825264715581369e-15  5.2739043806801456e-15  5.2468986263678946e-15  5.2404808670713540e-15  5.2788613534766580e-15  5.3618153600095248e-15  5.4634768457691015e-15  5.5398119943948672e-15  5.5421303113418894e-15  5.4320575942155131e-15  5.1930758096266956e-15  4.8351587355102625e-15  4.3916267173495517e-15  3.9100381318601508e-15  3.4406637961109866e-15  3.0263056797521167e-15  2.6960899862418394e-15  2.4640675009665379e-15  2.3317771904622432e-15  2.2929227292700324e-15  2.3381550558366846e-15  2.4584942259765426e-15  2.6467978808614597e-15  2.8974735969799264e-15  3.2050376342306852e-15  3.5621050909847437e-15  3.9572025009098738e-15  4.3727821421297584e-15  4.7841691518653357e-15  5.1607753837456160e-15  5.4720639033773440e-15  5.7072482397467308e-15  5.9619798054876595e-15  6.9275137806348032e-15  1.2871496543693690e-14  5.0038662770584861e-14  2.8030041065361767e-13  1.7020305513388941e-12  1.0460071538316206e-11  6.4228188022513654e-11  3.9208701500923586e-10  2.3778430601551945e-09  1.4382026603068868e-08  9.0568318748561816e-08  7.0890760363144723e-07  7.3854696670626305e-06  1.1506200346346127e-04  1.2189337554555778e-03  7.7312110965373614e-03  3.7177521792396320e-02  1.5255558870642161e-01  4.6012308311019445e-01  7.6109963369626099e-01  8.8230074060196872e-01  9.1733847342239139e-01  9.1430072516853023e-01  8.7328219973273424e-01  7.5370172965623849e-01  4.8439612669383814e-01  1.8797025957536806e-01  5.2854996415279132e-02  1.3362571615647979e-02  3.0458498232001710e-03  6.4559635755600858e-04  1.2825633922101403e-04  2.4190680112200190e-05  4.3767188258620915e-06  7.6578848808986744e-07  1.3045673693463737e-07  2.1754795259245193e-08  3.5660254403305934e-09  5.7643022037331125e-10  9.2113081341600500e-11  1.4581362812483320e-11  2.2919522763727267e-12  3.6004094069717816e-13  5.8254041722840962e-14  1.1004907813483788e-14  3.1183323222891496e-15  1.2476804502314769e-15  4.5610066712855768e-16  1.2627374198308252e-16  3.1345145109333563e-17  8.1229420619023740e-18  2.3386288767201278e-18  7.9764745743598326e-19  3.6928733490086117e-19  2.7752954759299252e-19  4.3467645281067051e-15  4.3027783029899978e-15  4.1865826191564401e-15  4.0401160991815369e-15  3.9173681322106576e-15  3.8664846265834525e-15  3.9142466693163178e-15  4.0579849841954775e-15  4.2673024502727148e-15  4.4947352901617230e-15  4.6917246835201731e-15  4.8247251664145427e-15  4.8862984575201708e-15  4.8975974721791101e-15  4.9013000138774314e-15  4.9470290030960491e-15  5.0736905330754426e-15  5.2942362079318510e-15  5.5877728408853070e-15  5.9018273692316301e-15  6.1644814399069216e-15  6.3029191923994968e-15  6.2627589699799734e-15  6.0222546568762484e-15  5.5972866296044222e-15  5.0363247408056846e-15  4.4078674622612264e-15  3.7848931081068033e-15  3.2309724733496900e-15  2.7912094369050024e-15  2.4890295410852429e-15  2.3279764146154132e-15  2.2966415008002279e-15  2.3746931528553611e-15  2.5384169420534271e-15  2.7648628409754880e-15  3.0343077471360679e-15  3.3311164770620495e-15  3.6432308874058969e-15  3.9605942666138800e-15  4.2730172947225662e-15  4.5683752772939258e-15  4.8325259449600391e-15  5.0534977039857215e-15  5.2398357182830335e-15  5.5128704871072225e-15  6.6536956070271793e-15  1.3519604254057308e-14  5.6640256905329039e-14  3.2946521875265035e-13  2.0658260409238108e-12  1.3195807659626026e-11  8.5221524469214278e-11  5.5801668869318320e-10  3.7302750123784106e-09  2.5801993141194257e-08  1.8956973258722756e-07  1.5087771688269280e-06  1.3149224060230236e-05  1.0227067967076030e-04  6.0693755418823718e-04  2.8950071769093841e-03  1.1907748312295243e-02  4.2586677764688420e-02  1.3091666763104129e-01  3.1128448097163641e-01  5.0859055458098035e-01  6.1088649655433969e-01  6.0146883063994117e-01  4.8651814195609644e-01  2.9762909297918205e-01  1.3232741352416455e-01  4.6731206845128444e-02  1.4503472541129863e-02  3.9748367432467435e-03  9.9976688015598870e-04  2.3130141768926070e-04  5.0005624756286059e-05  1.0186993390200840e-05  1.9746638008898487e-06  3.6736639836501953e-07  6.6070208583362862e-08  1.1557058200408451e-08  1.9759477310044996e-09  3.3152617863363880e-10  5.4759881117789391e-11  8.9287255122176284e-12  1.4417422228928565e-12  2.3254541287265449e-13  3.9020842397520724e-14  8.1095903011044392e-15  2.9407463396833877e-15  1.7665151390811049e-15  1.1919771232394869e-15  7.4645920615471995e-16  4.1895284587563611e-16  2.2619645246170165e-16  1.3323432048884629e-16  9.1020330323836523e-17  7.2395821978068982e-17  6.7034289577057914e-17  3.4578835320516271e-15  3.4446303667305447e-15  3.4164516409213026e-15  3.4033293393021880e-15  3.4412204948520648e-15  3.5567674398926677e-15  3.7549766073162967e-15  4.0145298398410708e-15  4.2926210658115191e-15  4.5379119741803491e-15  4.7074604610359094e-15  4.7820907719035973e-15  4.7750154746459159e-15  4.7304803520044311e-15  4.7122102318716798e-15  4.7845860871611529e-15  4.9918381438645734e-15  5.3414112135604597e-15  5.7967797408167546e-15  6.2825142867760348e-