<?xml version="1.0"?>
<VTKFile type="UnstructuredGrid"  version="0.1"  >
<UnstructuredGrid>
<Piece  NumberOfPoints="20201" NumberOfCells="40000">
<Points>
<DataArray  type="Float64"  NumberOfComponents="3"  format="ascii">0 0 0  2 0 0  4 0 0  6 0 0  8 0 0  10 0 0  12 0 0  14 0 0  16 0 0  18 0 0  20 0 0  22 0 0  24 0 0  26 0 0  28 0 0  30 0 0  32 0 0  34 0 0  36 0 0  38 0 0  40 0 0  42 0 0  44 0 0  46 0 0  48 0 0  50 0 0  52 0 0  54 0 0  56 0 0  58 0 0  60 0 0  62 0 0  64 0 0  66 0 0  68 0 0  70 0 0  72 0 0  74 0 0  76 0 0  78 0 0  80 0 0  82 0 0  84 0 0  86 0 0  88 0 0  90 0 0  92 0 0  94 0 0  96 0 0  98 0 0  100 0 0  102 0 0  104 0 0  106 0 0  108 0 0  110 0 0  112 0 0  114 0 0  116 0 0  118 0 0  120 0 0  122 0 0  124 0 0  126 0 0  128 0 0  130 0 0  132 0 0  134 0 0  136 0 0  138 0 0  140 0 0  142 0 0  144 0 0  146 0 0  148 0 0  150 0 0  152 0 0  154 0 0  156 0 0  158 0 0  160 0 0  162 0 0  164 0 0  166 0 0  168 0 0  170 0 0  172 0 0  174 0 0  176 0 0  178 0 0  180 0 0  182 0 0  184 0 0  186 0 0  188 0 0  190 0 0  192 0 0  194 0 0  196 0 0  198 0 0  200 0 0  0 2 0  2 2 0  4 2 0  6 2 0  8 2 0  10 2 0  12 2 0  14 2 0  16 2 0  18 2 0  20 2 0  22 2 0  24 2 0  26 2 0  28 2 0  30 2 0  32 2 0  34 2 0  36 2 0  38 2 0  40 2 0  42 2 0  44 2 0  46 2 0  48 2 0  50 2 0  52 2 0  54 2 0  56 2 0  58 2 0  60 2 0  62 2 0  64 2 0  66 2 0  68 2 0  70 2 0  72 2 0  74 2 0  76 2 0  78 2 0  80 2 0  82 2 0  84 2 0  86 2 0  88 2 0  90 2 0  92 2 0  94 2 0  96 2 0  98 2 0  100 2 0  102 2 0  104 2 0  106 2 0  108 2 0  110 2 0  112 2 0  114 2 0  116 2 0  118 2 0  120 2 0  122 2 0  124 2 0  126 2 0  128 2 0  130 2 0  132 2 0  134 2 0  136 2 0  138 2 0  140 2 0  142 2 0  144 2 0  146 2 0  148 2 0  150 2 0  152 2 0  154 2 0  156 2 0  158 2 0  160 2 0  162 2 0  164 2 0  166 2 0  168 2 0  170 2 0  172 2 0  174 2 0  176 2 0  178 2 0  180 2 0  182 2 0  184 2 0  186 2 0  188 2 0  190 2 0  192 2 0  194 2 0  196 2 0  198 2 0  200 2 0  0 4 0  2 4 0  4 4 0  6 4 0  8 4 0  10 4 0  12 4 0  14 4 0  16 4 0  18 4 0  20 4 0  22 4 0  24 4 0  26 4 0  28 4 0  30 4 0  32 4 0  34 4 0  36 4 0  38 4 0  40 4 0  42 4 0  44 4 0  46 4 0  48 4 0  50 4 0  52 4 0  54 4 0  56 4 0  58 4 0  60 4 0  62 4 0  64 4 0  66 4 0  68 4 0  70 4 0  72 4 0  74 4 0  76 4 0  78 4 0  80 4 0  82 4 0  84 4 0  86 4 0  88 4 0  90 4 0  92 4 0  94 4 0  96 4 0  98 4 0  100 4 0  102 4 0  104 4 0  106 4 0  108 4 0  110 4 0  112 4 0  114 4 0  116 4 0  118 4 0  120 4 0  122 4 0  124 4 0  126 4 0  128 4 0  130 4 0  132 4 0  134 4 0  136 4 0  138 4 0  140 4 0  142 4 0  144 4 0  146 4 0  148 4 0  150 4 0  152 4 0  154 4 0  156 4 0  158 4 0  160 4 0  162 4 0  164 4 0  166 4 0  168 4 0  170 4 0  172 4 0  174 4 0  176 4 0  178 4 0  180 4 0  182 4 0  184 4 0  186 4 0  188 4 0  190 4 0  192 4 0  194 4 0  196 4 0  198 4 0  200 4 0  0 6 0  2 6 0  4 6 0  6 6 0  8 6 0  10 6 0  12 6 0  14 6 0  16 6 0  18 6 0  20 6 0  22 6 0  24 6 0  26 6 0  28 6 0  30 6 0  32 6 0  34 6 0  36 6 0  38 6 0  40 6 0  42 6 0  44 6 0  46 6 0  48 6 0  50 6 0  52 6 0  54 6 0  56 6 0  58 6 0  60 6 0  62 6 0  64 6 0  66 6 0  68 6 0  70 6 0  72 6 0  74 6 0  76 6 0  78 6 0  80 6 0  82 6 0  84 6 0  86 6 0  88 6 0  90 6 0  92 6 0  94 6 0  96 6 0  98 6 0  100 6 0  102 6 0  104 6 0  106 6 0  108 6 0  110 6 0  112 6 0  114 6 0  116 6 0  118 6 0  120 6 0  122 6 0  124 6 0  126 6 0  128 6 0  130 6 0  132 6 0  134 6 0  136 6 0  138 6 0  140 6 0  142 6 0  144 6 0  146 6 0  148 6 0  150 6 0  152 6 0  154 6 0  156 6 0  158 6 0  160 6 0  162 6 0  164 6 0  166 6 0  168 6 0  170 6 0  172 6 0  174 6 0  176 6 0  178 6 0  180 6 0  182 6 0  184 6 0  186 6 0  188 6 0  190 6 0  192 6 0  194 6 0  196 6 0  198 6 0  200 6 0  0 8 0  2 8 0  4 8 0  6 8 0  8 8 0  10 8 0  12 8 0  14 8 0  16 8 0  18 8 0  20 8 0  22 8 0  24 8 0  26 8 0  28 8 0  30 8 0  32 8 0  34 8 0  36 8 0  38 8 0  40 8 0  42 8 0  44 8 0  46 8 0  48 8 0  50 8 0  52 8 0  54 8 0  56 8 0  58 8 0  60 8 0  62 8 0  64 8 0  66 8 0  68 8 0  70 8 0  72 8 0  74 8 0  76 8 0  78 8 0  80 8 0  82 8 0  84 8 0  86 8 0  88 8 0  90 8 0  92 8 0  94 8 0  96 8 0  98 8 0  100 8 0  102 8 0  104 8 0  106 8 0  108 8 0  110 8 0  112 8 0  114 8 0  116 8 0  118 8 0  120 8 0  122 8 0  124 8 0  126 8 0  128 8 0  130 8 0  132 8 0  134 8 0  136 8 0  138 8 0  140 8 0  142 8 0  144 8 0  146 8 0  148 8 0  150 8 0  152 8 0  154 8 0  156 8 0  158 8 0  160 8 0  162 8 0  164 8 0  166 8 0  168 8 0  170 8 0  172 8 0  174 8 0  176 8 0  178 8 0  180 8 0  182 8 0  184 8 0  186 8 0  188 8 0  190 8 0  192 8 0  194 8 0  196 8 0  198 8 0  200 8 0  0 10 0  2 10 0  4 10 0  6 10 0  8 10 0  10 10 0  12 10 0  14 10 0  16 10 0  18 10 0  20 10 0  22 10 0  24 10 0  26 10 0  28 10 0  30 10 0  32 10 0  34 10 0  36 10 0  38 10 0  40 10 0  42 10 0  44 10 0  46 10 0  48 10 0  50 10 0  52 10 0  54 10 0  56 10 0  58 10 0  60 10 0  62 10 0  64 10 0  66 10 0  68 10 0  70 10 0  72 10 0  74 10 0  76 10 0  78 10 0  80 10 0  82 10 0  84 10 0  86 10 0  88 10 0  90 10 0  92 10 0  94 10 0  96 10 0  98 10 0  100 10 0  102 10 0  104 10 0  106 10 0  108 10 0  110 10 0  112 10 0  114 10 0  116 10 0  118 10 0  120 10 0  122 10 0  124 10 0  126 10 0  128 10 0  130 10 0  132 10 0  134 10 0  136 10 0  138 10 0  140 10 0  142 10 0  144 10 0  146 10 0  148 10 0  150 10 0  152 10 0  154 10 0  156 10 0  158 10 0  160 10 0  162 10 0  164 10 0  166 10 0  168 10 0  170 10 0  172 10 0  174 10 0  176 10 0  178 10 0  180 10 0  182 10 0  184 10 0  186 10 0  188 10 0  190 10 0  192 10 0  194 10 0  196 10 0  198 10 0  200 10 0  0 12 0  2 12 0  4 12 0  6 12 0  8 12 0  10 12 0  12 12 0  14 12 0  16 12 0  18 12 0  20 12 0  22 12 0  24 12 0  26 12 0  28 12 0  30 12 0  32 12 0  34 12 0  36 12 0  38 12 0  40 12 0  42 12 0  44 12 0  46 12 0  48 12 0  50 12 0  52 12 0  54 12 0  56 12 0  58 12 0  60 12 0  62 12 0  64 12 0  66 12 0  68 12 0  70 12 0  72 12 0  74 12 0  76 12 0  78 12 0  80 12 0  82 12 0  84 12 0  86 12 0  88 12 0  90 12 0  92 12 0  94 12 0  96 12 0  98 12 0  100 12 0  102 12 0  104 12 0  106 12 0  108 12 0  110 12 0  112 12 0  114 12 0  116 12 0  118 12 0  120 12 0  122 12 0  124 12 0  126 12 0  128 12 0  130 12 0  132 12 0  134 12 0  136 12 0  138 12 0  140 12 0  142 12 0  144 12 0  146 12 0  148 12 0  150 12 0  152 12 0  154 12 0  156 12 0  158 12 0  160 12 0  162 12 0  164 12 0  166 12 0  168 12 0  170 12 0  172 12 0  174 12 0  176 12 0  178 12 0  180 12 0  182 12 0  184 12 0  186 12 0  188 12 0  190 12 0  192 12 0  194 12 0  196 12 0  198 12 0  200 12 0  0 14 0  2 14 0  4 14 0  6 14 0  8 14 0  10 14 0  12 14 0  14 14 0  16 14 0  18 14 0  20 14 0  22 14 0  24 14 0  26 14 0  28 14 0  30 14 0  32 14 0  34 14 0  36 14 0  38 14 0  40 14 0  42 14 0  44 14 0  46 14 0  48 14 0  50 14 0  52 14 0  54 14 0  56 14 0  58 14 0  60 14 0  62 14 0  64 14 0  66 14 0  68 14 0  70 14 0  72 14 0  74 14 0  76 14 0  78 14 0  80 14 0  82 14 0  84 14 0  86 14 0  88 14 0  90 14 0  92 14 0  94 14 0  96 14 0  98 14 0  100 14 0  102 14 0  104 14 0  106 14 0  108 14 0  110 14 0  112 14 0  114 14 0  116 14 0  118 14 0  120 14 0  122 14 0  124 14 0  126 14 0  128 14 0  130 14 0  132 14 0  134 14 0  136 14 0  138 14 0  140 14 0  142 14 0  144 14 0  146 14 0  148 14 0  150 14 0  152 14 0  154 14 0  156 14 0  158 14 0  160 14 0  162 14 0  164 14 0  166 14 0  168 14 0  170 14 0  172 14 0  174 14 0  176 14 0  178 14 0  180 14 0  182 14 0  184 14 0  186 14 0  188 14 0  190 14 0  192 14 0  194 14 0  196 14 0  198 14 0  200 14 0  0 16 0  2 16 0  4 16 0  6 16 0  8 16 0  10 16 0  12 16 0  14 16 0  16 16 0  18 16 0  20 16 0  22 16 0  24 16 0  26 16 0  28 16 0  30 16 0  32 16 0  34 16 0  36 16 0  38 16 0  40 16 0  42 16 0  44 16 0  46 16 0  48 16 0  50 16 0  52 16 0  54 16 0  56 16 0  58 16 0  60 16 0  62 16 0  64 16 0  66 16 0  68 16 0  70 16 0  72 16 0  74 16 0  76 16 0  78 16 0  80 16 0  82 16 0  84 16 0  86 16 0  88 16 0  90 16 0  92 16 0  94 16 0  96 16 0  98 16 0  100 16 0  102 16 0  104 16 0  106 16 0  108 16 0  110 16 0  112 16 0  114 16 0  116 16 0  118 16 0  120 16 0  122 16 0  124 16 0  126 16 0  128 16 0  130 16 0  132 16 0  134 16 0  136 16 0  138 16 0  140 16 0  142 16 0  144 16 0  146 16 0  148 16 0  150 16 0  152 16 0  154 16 0  156 16 0  158 16 0  160 16 0  162 16 0  164 16 0  166 16 0  168 16 0  170 16 0  172 16 0  174 16 0  176 16 0  178 16 0  180 16 0  182 16 0  184 16 0  186 16 0  188 16 0  190 16 0  192 16 0  194 16 0  196 16 0  198 16 0  200 16 0  0 18 0  2 18 0  4 18 0  6 18 0  8 18 0  10 18 0  12 18 0  14 18 0  16 18 0  18 18 0  20 18 0  22 18 0  24 18 0  26 18 0  28 18 0  30 18 0  32 18 0  34 18 0  36 18 0  38 18 0  40 18 0  42 18 0  44 18 0  46 18 0  48 18 0  50 18 0  52 18 0  54 18 0  56 18 0  58 18 0  60 18 0  62 18 0  64 18 0  66 18 0  68 18 0  70 18 0  72 18 0  74 18 0  76 18 0  78 18 0  80 18 0  82 18 0  84 18 0  86 18 0  88 18 0  90 18 0  92 18 0  94 18 0  96 18 0  98 18 0  100 18 0  102 18 0  104 18 0  106 18 0  108 18 0  110 18 0  112 18 0  114 18 0  116 18 0  118 18 0  120 18 0  122 18 0  124 18 0  126 18 0  128 18 0  130 18 0  132 18 0  134 18 0  136 18 0  138 18 0  140 18 0  142 18 0  144 18 0  146 18 0  148 18 0  150 18 0  152 18 0  154 18 0  156 18 0  158 18 0  160 18 0  162 18 0  164 18 0  166 18 0  168 18 0  170 18 0  172 18 0  174 18 0  176 18 0  178 18 0  180 18 0  182 18 0  184 18 0  186 18 0  188 18 0  190 18 0  192 18 0  194 18 0  196 18 0  198 18 0  200 18 0  0 20 0  2 20 0  4 20 0  6 20 0  8 20 0  10 20 0  12 20 0  14 20 0  16 20 0  18 20 0  20 20 0  22 20 0  24 20 0  26 20 0  28 20 0  30 20 0  32 20 0  34 20 0  36 20 0  38 20 0  40 20 0  42 20 0  44 20 0  46 20 0  48 20 0  50 20 0  52 20 0  54 20 0  56 20 0  58 20 0  60 20 0  62 20 0  64 20 0  66 20 0  68 20 0  70 20 0  72 20 0  74 20 0  76 20 0  78 20 0  80 20 0  82 20 0  84 20 0  86 20 0  88 20 0  90 20 0  92 20 0  94 20 0  96 20 0  98 20 0  100 20 0  102 20 0  104 20 0  106 20 0  108 20 0  110 20 0  112 20 0  114 20 0  116 20 0  118 20 0  120 20 0  122 20 0  124 20 0  126 20 0  128 20 0  130 20 0  132 20 0  134 20 0  136 20 0  138 20 0  140 20 0  142 20 0  144 20 0  146 20 0  148 20 0  150 20 0  152 20 0  154 20 0  156 20 0
[...]
<PointData  Scalars="f_271-4"> 
<DataArray  type="Float64"  Name="f_271-4"  format="ascii">1.1050181961838726e-06  1.0517723153478799e-06  9.0817536297605283e-07  7.1566637078978608e-07  5.2465012773441649e-07  3.7833080622654975e-07  3.0323460734270146e-07  3.0671438481309699e-07  3.7838453633973345e-07  4.9341879226216124e-07  6.1801588655594899e-07  7.1768411969809599e-07  7.6673391204897099e-07  7.5506557421092733e-07  6.8891989572915915e-07  5.8572669583789708e-07  4.6649063047762033e-07  3.4956111116866244e-07  2.4752557701996832e-07  1.6677221373237927e-07  1.0853310735782388e-07  7.0573682404954188e-08  4.9104907938390303e-08  4.0537544696943628e-08  4.2615739426424181e-08  5.4576332085613688e-08  7.6316527163710107e-08  1.0695060271929600e-07  1.4342935370667598e-07  1.7998418275976505e-07  2.0895824540993808e-07  2.2303885981699756e-07  2.1812292095494116e-07  1.9545123931422004e-07  1.6176689685737918e-07  1.2721759896576004e-07  1.0200176575837300e-07  9.3527678122009298e-08  1.0556228513512166e-07  1.3945233114130138e-07  1.9568750159236369e-07  2.7341777989340325e-07  3.6736712811966934e-07  4.6478554407206191e-07  5.4628831304150295e-07  5.9183850677393445e-07  5.8893920221868241e-07  5.3808363753111520e-07  4.5223561570576612e-07  3.5101260600185865e-07  2.5327465991755882e-07  1.7196023819776870e-07  1.1276273572078752e-07  7.5717003820663422e-08  5.7302350550860550e-08  4.9381212769057005e-08  3.3199914589448407e-08  -1.1132390121156976e-08  4.1707558551898222e-07  -7.1982134034039123e-06  1.2339522233261518e-04  -2.2287508908574909e-03  9.6300457414819893e-02  6.5918764437467470e-01  9.3954674568090335e-01  9.8745616566333416e-01  9.9603747406748444e-01  9.9628736560417241e-01  9.9049776387168198e-01  9.6546757249033632e-01  8.4530505345870099e-01  4.1124204439598955e-01  7.7561468760818444e-02  1.0397752942157041e-02  1.3725495345993479e-03  1.8356729803285858e-04  2.4926353755391755e-05  3.4625081962071571e-06  5.1528003367430997e-07  1.0225838675730967e-07  4.6011164819751353e-08  4.8553444256866726e-08  7.2512765825618515e-08  1.1850930025287100e-07  1.9265315831020664e-07  2.9913173321610187e-07  4.3506111543127858e-07  5.8508931367763674e-07  7.1722437119569795e-07  7.8190942316853421e-07  7.1184243172908443e-07  4.3212641817969489e-07  8.8884470945130719e-08  3.5674385210232008e-09  4.6412429762448461e-11  -1.1608103029477605e-12  9.9504200080122135e-14  -1.5401271405793784e-16  -7.8708056505240330e-16  -8.1113952023057782e-16  -9.2653267093807119e-16  1.0622131415644377e-06  1.0115883562478997e-06  8.7490048104187257e-07  6.9122265078455860e-07  5.0828778064230456e-07  3.6728957148451596e-07  2.9381416437021706e-07  2.9529612588737954e-07  3.6224223974784180e-07  4.7129916254422282e-07  5.9041577807875982e-07  6.8668957071555119e-07  7.3538927591039740e-07  7.2647592417466938e-07  6.6545133705715969e-07  5.6859751489711052e-07  4.5580072871373419e-07  3.4459598664413600e-07  2.4712755081499178e-07  1.6965295149116351e-07  1.1349095859963842e-07  7.6617557662631333e-08  5.5490467417312575e-08  4.6726485222929936e-08  4.8185318709374105e-08  5.9122569689485386e-08  7.9398111368488541e-08  1.0810765137153467e-07  1.4228431682721170e-07  1.7639619760515910e-07  2.0316701873704476e-07  2.1571868645598780e-07  2.1029252243369202e-07  1.8825108695808985e-07  1.5618747415814994e-07  1.2388901254404494e-07  1.0111574703246505e-07  9.4885484320647460e-08  1.0867840400067956e-07  1.4363429364517579e-07  2.0006658394928490e-07  2.7698889368292169e-07  3.6913031376121590e-07  4.6401088252993685e-07  5.4279923637126873e-07  5.8614448841201187e-07  5.8211240502174345e-07  5.3141927948688868e-07  4.4685866100130325e-07  3.4761140304266958e-07  2.5205029486512249e-07  1.7275436805436617e-07  1.1525743822929235e-07  7.9627608539945636e-08  6.2634358842342732e-08  5.7191311093879099e-08  4.5566820158265362e-08  -2.6709371572731632e-09  3.5848824422820885e-07  -5.6463639558561416e-06  9.1337121512955429e-05  -1.5806549869161980e-03  9.6165488258709256e-02  6.2597377624767647e-01  9.2709868704409726e-01  9.8324896750987623e-01  9.9378177739722839e-01  9.9399386963656799e-01  9.8640173302146139e-01  9.5482563447680380e-01  8.0878514435336013e-01  3.5365034835301917e-01  6.4737825755973019e-02  9.0519725879202890e-03  1.2279677074734474e-03  1.6717362295565975e-04  2.2998756250271677e-05  3.2343677676960963e-06  4.9283821351767264e-07  1.0494720789419892e-07  5.1152585522653771e-08  5.2825745596030894e-08  7.4811623738943765e-08  1.1768441723982441e-07  1.8717369244993633e-07  2.8715867170475755e-07  4.1485497084326637e-07  5.5584160421707324e-07  6.8032123428672555e-07  7.4267068759924740e-07  6.8312736097369392e-07  4.3775119212340491e-07  1.0903190590462059e-07  5.8713796951580192e-09  1.1922547263443565e-10  -1.5319011991050923e-13  3.2476597291281908e-13  1.0551560947959306e-14  2.2339793557378216e-14  1.4843831013966036e-14  1.3073230816189643e-14  9.4349231485092127e-07  9.0002009212886568e-07  7.8224381221162611e-07  6.2289456560400191e-07  4.6247168725290764e-07  3.3662760739126386e-07  2.6824704662408346e-07  2.6483603279777368e-07  3.1921583236150396e-07  4.1198217984121116e-07  5.1585258549282109e-07  6.0233026787715369e-07  6.4944309692518257e-07  6.4750332652479222e-07  6.0016349983521656e-07  5.2066654346267186e-07  4.2584398625584324e-07  3.3092641717003941e-07  2.4672359775994451e-07  1.7900195684228488e-07  1.2919573547686590e-07  9.5762714711227351e-08  7.5779676924593845e-08  6.6415143952237568e-08  6.5875570821309300e-08  7.3532204674750481e-08  8.9227591474516323e-08  1.1209778693158681e-07  1.3948528260864495e-07  1.6657023636689756e-07  1.8715176016698821e-07  1.9553894961200731e-07  1.8888039745949107e-07  1.6881427545961332e-07  1.4145783660359222e-07  1.1555227128610129e-07  9.9613249941553681e-08  9.9564652316025782e-08  1.1809074065605602e-07  1.5575433540505558e-07  2.1236731529300105e-07  2.8655581623799075e-07  3.7308969105168823e-07  4.6032519693786626e-07  5.3110067299466993e-07  5.6809802476606564e-07  5.6100965665825439e-07  5.1114713153628000e-07  4.3074112253775363e-07  3.3765229211497748e-07  2.4881571507682901e-07  1.7576430705704591e-07  1.2356563825955318e-07  9.2356576240483872e-08  7.9652332172742474e-08  8.1494055214365036e-08  8.9176569691673741e-08  9.7767546396113634e-08  -1.4758708598690456e-07  3.4054320410575340e-06  -3.7354127809530898e-05  1.2656466718359435e-03  8.2611530136619024e-02  4.8710776623029178e-01  8.6758071576397422e-01  9.6258244982024321e-01  9.8205634379637119e-01  9.8219969598592749e-01  9.6633820294672013e-01  9.0522018702481177e-01  6.5761887097353866e-01  2.1507667628886482e-01  3.8857504560149039e-02  6.0328312723636280e-03  8.8192455785405101e-04  1.2643149142319292e-04  1.8083678290430065e-05  2.6448877993409483e-06  4.3766849913409938e-07  1.1601218839865784e-07  6.8436165340787541e-08  6.7214828629509600e-08  8.3193589662937379e-08  1.1695028797139010e-07  1.7332069906640795e-07  2.5546512862590505e-07  3.6092500835853500e-07  4.7773091419538986e-07  5.8171859197629883e-07  6.3700569848347404e-07  6.0039644446015999e-07  4.3215002852993601e-07  1.6575340344401599e-07  1.9086083376946853e-08  6.9759669132981514e-10  4.5550564961825838e-11  1.3362931992906587e-12  -8.3308690467379232e-14  -2.6982717211751014e-13  -2.2549100039986456e-13  -2.0638820806209137e-13  7.7451310091095401e-07  7.4090738814977129e-07  6.4937818077138414e-07  5.2422877642174658e-07  3.9615479713957334e-07  2.9302973541864568e-07  2.3363819412665197e-07  2.2514814990919176e-07  2.6320966531198684e-07  3.3364183142760625e-07  4.1569923044815641e-07  4.8714482559667271e-07  5.3021636699479265e-07  5.3624593944431880e-07  5.0683624463377592e-07  4.5134295763415752e-07  3.8241755417621835e-07  3.1190515138124935e-07  2.4841791472179060e-07  1.9663216069284554e-07  1.5774718750453330e-07  1.3056788848996009e-07  1.1283069941666003e-07  1.0242119324428148e-07  9.8127655849159446e-08  9.9699181105575794e-08  1.0723741061406974e-07  1.2022993070130339e-07  1.3670994717955990e-07  1.5303506631045607e-07  1.6458614416263925e-07  1.6729836620171618e-07  1.5945997582780468e-07  1.4290840020439180e-07  1.2289647144051365e-07  1.0652763854553616e-07  1.0045158432441263e-07  1.0899508673745690e-07  1.3370814137006552e-07  1.7434036367093223e-07  2.2999081255432911e-07  2.9875757908317315e-07  3.7558362590435754e-07  4.5026939344337769e-07  5.0838112850304166e-07  5.3581295471645022e-07  5.2472041533123316e-07  4.7718632749424639e-07  4.0440217620637831e-07  3.2207209397810430e-07  2.4486708939122765e-07  1.8270074588762487e-07  1.3989742153337486e-07  1.1659299393552278e-07  1.1114591385381763e-07  1.2379402507408962e-07  1.7042046324943932e-07  3.4699923947223719e-07  1.2638029852285845e-06  7.5909357874127989e-06  9.6246232341615524e-05  4.4693095582022946e-03  4.7924075578303249e-02  2.4984179976169460e-01  6.5926970991566713e-01  8.7625921462865974e-01  9.3082753893296499e-01  9.3110596471559071e-01  8.8420058765252718e-01  7.1629847785602707e-01  3.4741557136098361e-01  8.9670397210630387e-02  1.7989675153516030e-02  3.1576310444287087e-03  5.1344827688684972e-04  7.9744398566743683e-05  1.2165337523075696e-05  1.9187921982076374e-06  3.7959648093770277e-07  1.4316972759547188e-07  1.0274398503074204e-07  9.5830906309017521e-08  1.0148708624610665e-07  1.2071187861415189e-07  1.5754531094688369e-07  2.1449931782164608e-07  2.8969929864501517e-07  3.7430856676838309e-07  4.5103524569197833e-07  4.9522059722316407e-07  4.7972988909227264e-07  3.8456625574042753e-07  2.1713552709144689e-07  6.0913435105598976e-08  6.9474727262981639e-09  5.2817940994925122e-10  5.1252497239506254e-11  6.9513527822422278e-12  3.1830793266706433e-12  2.6621599368461509e-12  2.5629189981772267e-12  5.8827637360222316e-07  5.6506668188446349e-07  5.0145169655700240e-07  4.1338806172422665e-07  3.2156753723942789e-07  2.4549894528815251e-07  1.9905530103761272e-07  1.8829626002129668e-07  2.1117690316851925e-07  2.5856590121415314e-07  3.1647198667764534e-07  3.6951830580702185e-07  4.0504437079646069e-07  4.1638366995435403e-07  4.0389715957098975e-07  3.7347323585303794e-07  3.3353829940720869e-07  2.9210479560331463e-07  2.5487339281865298e-07  2.2459433078439363e-07  2.0140928976636806e-07  1.8379295100268509e-07  1.6972851473479905e-07  1.5774172666386429e-07  1.4745418524780727e-07  1.3948819749703421e-07  1.3482083944227014e-07  1.3391313023991119e-07  1.3603204058917078e-07  1.3911961294343169e-07  1.4036745213209471e-07  1.3736077216779794e-07  1.2934591173501318e-07  1.1800850182663683e-07  1.0728577653223289e-07  1.0218096301637575e-07  1.0709200901574508e-07  1.2449924486466089e-07  1.5470952634242949e-07  1.9664258694799142e-07  2.4871638567161484e-07  3.0861442871366102e-07  3.7175911787769688e-07  4.2997594242364510e-07  4.7233855695314729e-07  4.8868353549605994e-07  4.7402729942166874e-07  4.3115309031872455e-07  3.6976395273779676e-07  3.0281562593273465e-07  2.4219966705480557e-07  1.9585711227526886e-07  1.6712379827325202e-07  1.5587029237331456e-07  1.6084920630034686e-07  1.8560452017151772e-07  2.7048973014850209e-07  7.2330482588514515e-07  3.9408408129006813e-06  3.2310218946980108e-05  3.8045544666547878e-04  3.4022562074389191e-03  1.9541064938632044e-02  8.2338739155184290e-02  2.6912305472924958e-01  5.4021193052033900e-01  6.8851862337717440e-01  6.9078275580390891e-01  5.5702679316478032e-01  3.0473575601173780e-01  1.0647492807264891e-01  2.9095952764072213e-02  6.6609629343763960e-03  1.3439589459077928e-03  2.4626672602664530e-04  4.2308444944038755e-05  7.0753665084881079e-06  1.2811382250327028e-06  3.5089722361801777e-07  1.9553173936008857e-07  1.6002609685797382e-07  1.4363885462142631e-07  1.3421096315058942e-07  1.3404074935739615e-07  1.4714924589635060e-07  1.7594220177399270e-07  2.1933925841686140e-07  2.7139083074574754e-07  3.2077962855707569e-07  3.5206608188163623e-07  3.4944239690092298e-07  3.0300442091605167e-07  2.1639954638004600e-07  1.1350016941223801e-07  3.8017666199192572e-08  8.8561628744283556e-09  2.1433583663711035e-09  6.3203579951013798e-10  2.1143862089943450e-10  7.7941199674853498e-11  4.5627964766193687e-11  4.1531069989547510e-07  4.0120620130428294e-07  3.6236680300311404e-07  3.0813901286600598e-07  2.5094313741245104e-07  2.0284631043597035e-07  1.7271060565762456e-07  1.6460472326476822e-07  1.7749022739545023e-07  2.0590127423630025e-07  2.4144709887230824e-07  2.7501990491323991e-07  2.9928187508568282e-07  3.1059510794363893e-07  3.0958423214079037e-07  3.0014276504653034e-07  2.8746409872770199e-07  2.7602056163391170e-07  2.6820496928810079e-07  2.6391496959101857e-07  2.6102396801584532e-07  2.5648597361783917e-07  2.4767142710141656e-07  2.3343831596713677e-07  2.1452721873132157e-07  1.9316634456451067e-07  1.7213209888518070e-07  1.5371815494308379e-07  1.3903607570829420e-07  1.2788185020710026e-07  1.1917616620558451e-07  1.1178489651949368e-07  1.0537616894261587e-07  1.0092265484425093e-07  1.0057623144528991e-07  1.0692326572749748e-07  1.2195909178195411e-07  1.4631988513168078e-07  1.7920599500880422e-07  2.1896205333767835e-07  2.6368494257671495e-07  3.1108638426128290e-07  3.5754052297218000e-07  3.9731082047845462e-07  4.2323396508798348e-07  4.2912573725113127e-07  4.1269634891066828e-07  3.7715753087285777e-07  3.3048302188004000e-07  2.8275974647877648e-07  2.4308067359319256e-07  2.1737395559107766e-07  2.0776590833590946e-07  2.1333139436288299e-07  2.3218499806740794e-07  2.6827375799659030e-07  3.7133299865670036e-07  9.2799599229767196e-07  4.9516555891834717e-06  3.7155403492582857e-05  2.5959292392433743e-04  1.4123365056225748e-03  6.0762564305812030e-03  2.1612174516086217e-02  6.1585551751194643e-02  1.3598211286691120e-01  2.0515358051379409e-01  2.0696426421959863e-01  1.4158575868275428e-01  6.7648113341135518e-02  2.5338408902762437e-02  7.8083730113771878e-03  2.0644399760533015e-03  4.7753898065754850e-04  9.9397430416156164e-05  1.9172045149634610e-05  3.6579277686660501e-06  8.5774419995272909e-07  3.7220296854099939e-07  2.7939467907913580e-07  2.4442985053508015e-07  2.1403939259464595e-07  1.8442351493710272e-07  1.6044951414539222e-07  1.4737160816895270e-07  1.4827832485462436e-07  1.6295046249509001e-07  1.8742083092697590e-07  2.1424199382569946e-07  2.3375942660188894e-07  2.3665400999265353e-07  2.1748999090103907e-07  1.7797925505262651e-07  1.2770628543020107e-07  8.0352225139723312e-08  4.6810221956057021e-08  2.7876254975777901e-08  1.8027383124219330e-08  1.3056933896782189e-08  1.0745209361578829e-08  1.0067637110492122e-08  2.7663146083097073e-07  2.6928260563799947e-07  2.4919404810964973e-07  2.2162756323077331e-07  1.9352164723261750e-07  1.7143335248871716e-07  1.5978736396204593e-07  1.5996072608371570e-07  1.7031354693690790e-07  1.8697340191058325e-07  2.0510771010516676e-07  2.2041189193697710e-07  2.3045028200961398e-07  2.3539782617917455e-07  2.3785068705887068e-07  2.4173478825197916e-07  2.5071818657489947e-07  2.6668808281995139e-07  2.8877436783492691e-07  3.1323393691189221e-07  3.3431879970579288e-07  3.4596807526845960e-07  3.4378537658472716e-07  3.2650685001080521e-07  2.9631659929882491e-07  2.5793297227344967e-07  2.1699849767794812e-07  1.7853647176862551e-07  1.4601218752449385e-07  1.2112729839241220e-07  1.0417432388975827e-07  9.4668210506008488e-08  9.1978808164232380e-08  9.5741292494814741e-08  1.0591669827984955e-07  1.2252228385347801e-07  1.4521630300263857e-07  1.7301924458120350e-07  2.0438715575544732e-07  2.3758986416943455e-07  2.7103293147372769e-07  3.0311881530203175e-07  3.3166397590036671e-07  3.5347384448984780e-07  3.6479713896115765e-07  3.6277635849132701e-07  3.4716631618520284e-07  3.2125658342402416e-07  2.9137692831034750e-07  2.6518417618573887e-07  2.4950264261360354e-07  2.4853957806670790e-07  2.6300508017493085e-07  2.9037386247038509e-07  3.2665879469683713e-07  3.7272352591083363e-07  4.6799521689121860e-07  9.1149000726025843e-07  3.7211807925348058e-06  2.0506466922910960e-05  1.0341213180352196e-04  4.3898862098771635e-04  1.5732818501012064e-03  4.6941811893819333e-03  1.1439985460199356e-02  2.1615870905794424e-02  3.0446130467124344e-02  3.0676752822763692e-02  2.2173830532178661e-02  1.2058760689010546e-02  5.1552512540685097e-03  1.8254442997551257e-03  5.5136203085757909e-04  1.4586218037831346e-04  3.4527416560021377e-05  7.6419047288772024e-06  1.8104031650829353e-06  6.5898208268693903e-07  4.4602480669570901e-07  3.9427008786988070e-07  3.5504652688095534e-07  3.0620596186923162e-07  2.5163627033111203e-07  2.0020578259668044e-07  1.5977973637190195e-07  1.3489289075399489e-07  1.2608361495851956e-07  1.3021457844965706e-07  1.4140393817581421e-07  1.5247482326203691e-07  1.5691230616838477e-07  1.5103607870356483e-07  1.3559845810307757e-07  1.1571386986764702e-07  9.8487814231723798e-08  8.9073607197454588e-08  8.7718802422143039e-08  9.0611015167518994e-08  9.3910887551475213e-08  9.5991204376282741e-08  9.6659005383072222e-08  1.8126839643153029e-07  1.7804932346272760e-07  1.6982596913821534e-07  1.6029045569117319e-07  1.5385470058156802e-07  1.5388182651547763e-07  1.6141341435776695e-07  1.7482084977717164e-07  1.9041343382660350e-07  2.0373864796334392e-07  2.1116160129356836e-07  2.1125855148156815e-07  2.0557695295187059e-07  1.9845874877478811e-07  1.9592523797513240e-07  2.0395291085694492e-07  2.2662748509207827e-07  2.6461001854955254e-07  3.1426069910894009e-07  3.6777456217140399e-07  4.1464041529817819e-07  4.4435211453988644e-07  4.4958202837442147e-07  4.2847843037205499e-07  3.8499064366288143e-07  3.2716718436723551e-07  2.6444415420169706e-07  2.0523353705619406e-07  1.5557857910901724e-07  1.1887910282873018e-07  9.6266464148381907e-08  8.7206390282018222e-08  9.0087719234715151e-08  1.0270167951154109e-07  1.2258382085453355e-07  1.4722817609282947e-07  1.7422408382508425e-07  2.0139191777637809e-07  2.2696335702964821e-07  2.4975244201671703e-07  2.6916273620095940e-07  2.8490683907631131e-07  2.9653718766038637e-07  3.0314279979035479e-07  3.0357515013360214e-07  2.9723930847761823e-07  2.8506985719082107e-07  2.7014113634407744e-07  2.5752473586022630e-07  2.5331327915379653e-07  2.6299254433283018e-07  2.8957414199064141e-07  3.3214150227560870e-07  3.8557809598724127e-07  4.4221089196718858e-07  4.9726240629763159e-07  5.7054745029641828e-07  8.1918163523713281e-07  2.0902547775248007e-06  8.0986821364855867e-06  3.2266079395583653e-05  1.1472811025842902e-04  3.4999076056633940e-04  8.9768761815999095e-04  1.8803216572059467e-03  3.1363181138940729e-03  4.0755450990412785e-03  4.0904812517489775e-03  3.1761686902447182e-03  1.9309347877965542e-03  9.4280661844306393e-04  3.8032161740151119e-04  1.3076030775177795e-04  3.9280169928914591e-05  1.0675103415283036e-05  2.8723485658042526e-06  1.0062969314827882e-06  6.2409778144106560e-07  5.5777818978303871e-07  5.3014596220257342e-07  4.8318719931861454e-07  4.1293620402596991e-07  3.3036872317642493e-07  2.4955408044146186e-07  1.8208343847248160e-07  1.3447218368313524e-07  1.0780725447265670e-07  9.8760090894212339e-08  1.0117936877589135e-07  1.0791774098615280e-07  1.1279386902157340e-07  1.1242675648047586e-07  1.0736254994599368e-07  1.0185546360157320e-07  1.0206618434370994e-07  1.1316803360947649e-07  1.3652240332605598e-07  1.6833594048065406e-07  2.0073681772603850e-07  2.2477365304795462e-07  2.3362618553633916e-07  1.2762713193321527e-07  1.2621673966262917e-07  1.2365344385662702e-07  1.2403507921246523e-07  1.3170815008731773e-07  1.4898826681124948e-07  1.7479634077653565e-07  2.0463740121658834e-07  2.3182821293925480e-07  2.4956859544366433e-07  2.5326582081389005e-07  2.4240605910802900e-07  2.2129490582401744e-07  1.9829257453398326e-07  1.8372519845215923e-07  1.8715217301692314e-07  2.1476143784959493e-07  2.6738963618156958e-07  3.3945224067495589e-07  4.1919186122602091e-07  4.9078618452963752e