<?xml version="1.0"?>
<VTKFile type="UnstructuredGrid"  version="0.1"  >
<UnstructuredGrid>
<Piece  NumberOfPoints="20201" NumberOfCells="40000">
<Points>
<DataArray  type="Float64"  NumberOfComponents="3"  format="ascii">0 0 0  2 0 0  4 0 0  6 0 0  8 0 0  10 0 0  12 0 0  14 0 0  16 0 0  18 0 0  20 0 0  22 0 0  24 0 0  26 0 0  28 0 0  30 0 0  32 0 0  34 0 0  36 0 0  38 0 0  40 0 0  42 0 0  44 0 0  46 0 0  48 0 0  50 0 0  52 0 0  54 0 0  56 0 0  58 0 0  60 0 0  62 0 0  64 0 0  66 0 0  68 0 0  70 0 0  72 0 0  74 0 0  76 0 0  78 0 0  80 0 0  82 0 0  84 0 0  86 0 0  88 0 0  90 0 0  92 0 0  94 0 0  96 0 0  98 0 0  100 0 0  102 0 0  104 0 0  106 0 0  108 0 0  110 0 0  112 0 0  114 0 0  116 0 0  118 0 0  120 0 0  122 0 0  124 0 0  126 0 0  128 0 0  130 0 0  132 0 0  134 0 0  136 0 0  138 0 0  140 0 0  142 0 0  144 0 0  146 0 0  148 0 0  150 0 0  152 0 0  154 0 0  156 0 0  158 0 0  160 0 0  162 0 0  164 0 0  166 0 0  168 0 0  170 0 0  172 0 0  174 0 0  176 0 0  178 0 0  180 0 0  182 0 0  184 0 0  186 0 0  188 0 0  190 0 0  192 0 0  194 0 0  196 0 0  198 0 0  200 0 0  0 2 0  2 2 0  4 2 0  6 2 0  8 2 0  10 2 0  12 2 0  14 2 0  16 2 0  18 2 0  20 2 0  22 2 0  24 2 0  26 2 0  28 2 0  30 2 0  32 2 0  34 2 0  36 2 0  38 2 0  40 2 0  42 2 0  44 2 0  46 2 0  48 2 0  50 2 0  52 2 0  54 2 0  56 2 0  58 2 0  60 2 0  62 2 0  64 2 0  66 2 0  68 2 0  70 2 0  72 2 0  74 2 0  76 2 0  78 2 0  80 2 0  82 2 0  84 2 0  86 2 0  88 2 0  90 2 0  92 2 0  94 2 0  96 2 0  98 2 0  100 2 0  102 2 0  104 2 0  106 2 0  108 2 0  110 2 0  112 2 0  114 2 0  116 2 0  118 2 0  120 2 0  122 2 0  124 2 0  126 2 0  128 2 0  130 2 0  132 2 0  134 2 0  136 2 0  138 2 0  140 2 0  142 2 0  144 2 0  146 2 0  148 2 0  150 2 0  152 2 0  154 2 0  156 2 0  158 2 0  160 2 0  162 2 0  164 2 0  166 2 0  168 2 0  170 2 0  172 2 0  174 2 0  176 2 0  178 2 0  180 2 0  182 2 0  184 2 0  186 2 0  188 2 0  190 2 0  192 2 0  194 2 0  196 2 0  198 2 0  200 2 0  0 4 0  2 4 0  4 4 0  6 4 0  8 4 0  10 4 0  12 4 0  14 4 0  16 4 0  18 4 0  20 4 0  22 4 0  24 4 0  26 4 0  28 4 0  30 4 0  32 4 0  34 4 0  36 4 0  38 4 0  40 4 0  42 4 0  44 4 0  46 4 0  48 4 0  50 4 0  52 4 0  54 4 0  56 4 0  58 4 0  60 4 0  62 4 0  64 4 0  66 4 0  68 4 0  70 4 0  72 4 0  74 4 0  76 4 0  78 4 0  80 4 0  82 4 0  84 4 0  86 4 0  88 4 0  90 4 0  92 4 0  94 4 0  96 4 0  98 4 0  100 4 0  102 4 0  104 4 0  106 4 0  108 4 0  110 4 0  112 4 0  114 4 0  116 4 0  118 4 0  120 4 0  122 4 0  124 4 0  126 4 0  128 4 0  130 4 0  132 4 0  134 4 0  136 4 0  138 4 0  140 4 0  142 4 0  144 4 0  146 4 0  148 4 0  150 4 0  152 4 0  154 4 0  156 4 0  158 4 0  160 4 0  162 4 0  164 4 0  166 4 0  168 4 0  170 4 0  172 4 0  174 4 0  176 4 0  178 4 0  180 4 0  182 4 0  184 4 0  186 4 0  188 4 0  190 4 0  192 4 0  194 4 0  196 4 0  198 4 0  200 4 0  0 6 0  2 6 0  4 6 0  6 6 0  8 6 0  10 6 0  12 6 0  14 6 0  16 6 0  18 6 0  20 6 0  22 6 0  24 6 0  26 6 0  28 6 0  30 6 0  32 6 0  34 6 0  36 6 0  38 6 0  40 6 0  42 6 0  44 6 0  46 6 0  48 6 0  50 6 0  52 6 0  54 6 0  56 6 0  58 6 0  60 6 0  62 6 0  64 6 0  66 6 0  68 6 0  70 6 0  72 6 0  74 6 0  76 6 0  78 6 0  80 6 0  82 6 0  84 6 0  86 6 0  88 6 0  90 6 0  92 6 0  94 6 0  96 6 0  98 6 0  100 6 0  102 6 0  104 6 0  106 6 0  108 6 0  110 6 0  112 6 0  114 6 0  116 6 0  118 6 0  120 6 0  122 6 0  124 6 0  126 6 0  128 6 0  130 6 0  132 6 0  134 6 0  136 6 0  138 6 0  140 6 0  142 6 0  144 6 0  146 6 0  148 6 0  150 6 0  152 6 0  154 6 0  156 6 0  158 6 0  160 6 0  162 6 0  164 6 0  166 6 0  168 6 0  170 6 0  172 6 0  174 6 0  176 6 0  178 6 0  180 6 0  182 6 0  184 6 0  186 6 0  188 6 0  190 6 0  192 6 0  194 6 0  196 6 0  198 6 0  200 6 0  0 8 0  2 8 0  4 8 0  6 8 0  8 8 0  10 8 0  12 8 0  14 8 0  16 8 0  18 8 0  20 8 0  22 8 0  24 8 0  26 8 0  28 8 0  30 8 0  32 8 0  34 8 0  36 8 0  38 8 0  40 8 0  42 8 0  44 8 0  46 8 0  48 8 0  50 8 0  52 8 0  54 8 0  56 8 0  58 8 0  60 8 0  62 8 0  64 8 0  66 8 0  68 8 0  70 8 0  72 8 0  74 8 0  76 8 0  78 8 0  80 8 0  82 8 0  84 8 0  86 8 0  88 8 0  90 8 0  92 8 0  94 8 0  96 8 0  98 8 0  100 8 0  102 8 0  104 8 0  106 8 0  108 8 0  110 8 0  112 8 0  114 8 0  116 8 0  118 8 0  120 8 0  122 8 0  124 8 0  126 8 0  128 8 0  130 8 0  132 8 0  134 8 0  136 8 0  138 8 0  140 8 0  142 8 0  144 8 0  146 8 0  148 8 0  150 8 0  152 8 0  154 8 0  156 8 0  158 8 0  160 8 0  162 8 0  164 8 0  166 8 0  168 8 0  170 8 0  172 8 0  174 8 0  176 8 0  178 8 0  180 8 0  182 8 0  184 8 0  186 8 0  188 8 0  190 8 0  192 8 0  194 8 0  196 8 0  198 8 0  200 8 0  0 10 0  2 10 0  4 10 0  6 10 0  8 10 0  10 10 0  12 10 0  14 10 0  16 10 0  18 10 0  20 10 0  22 10 0  24 10 0  26 10 0  28 10 0  30 10 0  32 10 0  34 10 0  36 10 0  38 10 0  40 10 0  42 10 0  44 10 0  46 10 0  48 10 0  50 10 0  52 10 0  54 10 0  56 10 0  58 10 0  60 10 0  62 10 0  64 10 0  66 10 0  68 10 0  70 10 0  72 10 0  74 10 0  76 10 0  78 10 0  80 10 0  82 10 0  84 10 0  86 10 0  88 10 0  90 10 0  92 10 0  94 10 0  96 10 0  98 10 0  100 10 0  102 10 0  104 10 0  106 10 0  108 10 0  110 10 0  112 10 0  114 10 0  116 10 0  118 10 0  120 10 0  122 10 0  124 10 0  126 10 0  128 10 0  130 10 0  132 10 0  134 10 0  136 10 0  138 10 0  140 10 0  142 10 0  144 10 0  146 10 0  148 10 0  150 10 0  152 10 0  154 10 0  156 10 0  158 10 0  160 10 0  162 10 0  164 10 0  166 10 0  168 10 0  170 10 0  172 10 0  174 10 0  176 10 0  178 10 0  180 10 0  182 10 0  184 10 0  186 10 0  188 10 0  190 10 0  192 10 0  194 10 0  196 10 0  198 10 0  200 10 0  0 12 0  2 12 0  4 12 0  6 12 0  8 12 0  10 12 0  12 12 0  14 12 0  16 12 0  18 12 0  20 12 0  22 12 0  24 12 0  26 12 0  28 12 0  30 12 0  32 12 0  34 12 0  36 12 0  38 12 0  40 12 0  42 12 0  44 12 0  46 12 0  48 12 0  50 12 0  52 12 0  54 12 0  56 12 0  58 12 0  60 12 0  62 12 0  64 12 0  66 12 0  68 12 0  70 12 0  72 12 0  74 12 0  76 12 0  78 12 0  80 12 0  82 12 0  84 12 0  86 12 0  88 12 0  90 12 0  92 12 0  94 12 0  96 12 0  98 12 0  100 12 0  102 12 0  104 12 0  106 12 0  108 12 0  110 12 0  112 12 0  114 12 0  116 12 0  118 12 0  120 12 0  122 12 0  124 12 0  126 12 0  128 12 0  130 12 0  132 12 0  134 12 0  136 12 0  138 12 0  140 12 0  142 12 0  144 12 0  146 12 0  148 12 0  150 12 0  152 12 0  154 12 0  156 12 0  158 12 0  160 12 0  162 12 0  164 12 0  166 12 0  168 12 0  170 12 0  172 12 0  174 12 0  176 12 0  178 12 0  180 12 0  182 12 0  184 12 0  186 12 0  188 12 0  190 12 0  192 12 0  194 12 0  196 12 0  198 12 0  200 12 0  0 14 0  2 14 0  4 14 0  6 14 0  8 14 0  10 14 0  12 14 0  14 14 0  16 14 0  18 14 0  20 14 0  22 14 0  24 14 0  26 14 0  28 14 0  30 14 0  32 14 0  34 14 0  36 14 0  38 14 0  40 14 0  42 14 0  44 14 0  46 14 0  48 14 0  50 14 0  52 14 0  54 14 0  56 14 0  58 14 0  60 14 0  62 14 0  64 14 0  66 14 0  68 14 0  70 14 0  72 14 0  74 14 0  76 14 0  78 14 0  80 14 0  82 14 0  84 14 0  86 14 0  88 14 0  90 14 0  92 14 0  94 14 0  96 14 0  98 14 0  100 14 0  102 14 0  104 14 0  106 14 0  108 14 0  110 14 0  112 14 0  114 14 0  116 14 0  118 14 0  120 14 0  122 14 0  124 14 0  126 14 0  128 14 0  130 14 0  132 14 0  134 14 0  136 14 0  138 14 0  140 14 0  142 14 0  144 14 0  146 14 0  148 14 0  150 14 0  152 14 0  154 14 0  156 14 0  158 14 0  160 14 0  162 14 0  164 14 0  166 14 0  168 14 0  170 14 0  172 14 0  174 14 0  176 14 0  178 14 0  180 14 0  182 14 0  184 14 0  186 14 0  188 14 0  190 14 0  192 14 0  194 14 0  196 14 0  198 14 0  200 14 0  0 16 0  2 16 0  4 16 0  6 16 0  8 16 0  10 16 0  12 16 0  14 16 0  16 16 0  18 16 0  20 16 0  22 16 0  24 16 0  26 16 0  28 16 0  30 16 0  32 16 0  34 16 0  36 16 0  38 16 0  40 16 0  42 16 0  44 16 0  46 16 0  48 16 0  50 16 0  52 16 0  54 16 0  56 16 0  58 16 0  60 16 0  62 16 0  64 16 0  66 16 0  68 16 0  70 16 0  72 16 0  74 16 0  76 16 0  78 16 0  80 16 0  82 16 0  84 16 0  86 16 0  88 16 0  90 16 0  92 16 0  94 16 0  96 16 0  98 16 0  100 16 0  102 16 0  104 16 0  106 16 0  108 16 0  110 16 0  112 16 0  114 16 0  116 16 0  118 16 0  120 16 0  122 16 0  124 16 0  126 16 0  128 16 0  130 16 0  132 16 0  134 16 0  136 16 0  138 16 0  140 16 0  142 16 0  144 16 0  146 16 0  148 16 0  150 16 0  152 16 0  154 16 0  156 16 0  158 16 0  160 16 0  162 16 0  164 16 0  166 16 0  168 16 0  170 16 0  172 16 0  174 16 0  176 16 0  178 16 0  180 16 0  182 16 0  184 16 0  186 16 0  188 16 0  190 16 0  192 16 0  194 16 0  196 16 0  198 16 0  200 16 0  0 18 0  2 18 0  4 18 0  6 18 0  8 18 0  10 18 0  12 18 0  14 18 0  16 18 0  18 18 0  20 18 0  22 18 0  24 18 0  26 18 0  28 18 0  30 18 0  32 18 0  34 18 0  36 18 0  38 18 0  40 18 0  42 18 0  44 18 0  46 18 0  48 18 0  50 18 0  52 18 0  54 18 0  56 18 0  58 18 0  60 18 0  62 18 0  64 18 0  66 18 0  68 18 0  70 18 0  72 18 0  74 18 0  76 18 0  78 18 0  80 18 0  82 18 0  84 18 0  86 18 0  88 18 0  90 18 0  92 18 0  94 18 0  96 18 0  98 18 0  100 18 0  102 18 0  104 18 0  106 18 0  108 18 0  110 18 0  112 18 0  114 18 0  116 18 0  118 18 0  120 18 0  122 18 0  124 18 0  126 18 0  128 18 0  130 18 0  132 18 0  134 18 0  136 18 0  138 18 0  140 18 0  142 18 0  144 18 0  146 18 0  148 18 0  150 18 0  152 18 0  154 18 0  156 18 0  158 18 0  160 18 0  162 18 0  164 18 0  166 18 0  168 18 0  170 18 0  172 18 0  174 18 0  176 18 0  178 18 0  180 18 0  182 18 0  184 18 0  186 18 0  188 18 0  190 18 0  192 18 0  194 18 0  196 18 0  198 18 0  200 18 0  0 20 0  2 20 0  4 20 0  6 20 0  8 20 0  10 20 0  12 20 0  14 20 0  16 20 0  18 20 0  20 20 0  22 20 0  24 20 0  26 20 0  28 20 0  30 20 0  32 20 0  34 20 0  36 20 0  38 20 0  40 20 0  42 20 0  44 20 0  46 20 0  48 20 0  50 20 0  52 20 0  54 20 0  56 20 0  58 20 0  60 20 0  62 20 0  64 20 0  66 20 0  68 20 0  70 20 0  72 20 0  74 20 0  76 20 0  78 20 0  80 20 0  82 20 0  84 20 0  86 20 0  88 20 0  90 20 0  92 20 0  94 20 0  96 20 0  98 20 0  100 20 0  102 20 0  104 20 0  106 20 0  108 20 0  110 20 0  112 20 0  114 20 0  116 20 0  118 20 0  120 20 0  122 20 0  124 20 0  126 20 0  128 20 0  130 20 0  132 20 0  134 20 0  136 20 0  138 20 0  140 20 0  142 20 0  144 20 0  146 20 0  148 20 0  150 20 0  152 20 0  154 20 0  156 20 0
[...]
<PointData  Scalars="f_271-4"> 
<DataArray  type="Float64"  Name="f_271-4"  format="ascii">3.0388911377246602e-01  2.7608697226320572e-01  2.1682212311003721e-01  1.3941108663496993e-01  6.4850200393590310e-02  1.4872269847289010e-02  1.5302535156273009e-03  2.7001732084708338e-02  8.5076740628904343e-02  1.6014926283036668e-01  2.3101897428944682e-01  2.8017256663614953e-01  2.9885694637767768e-01  2.8621837816377571e-01  2.4754723672480336e-01  1.9259101302238713e-01  1.3293951998200038e-01  7.9139495629927253e-02  3.8467758701848216e-02  1.3582397395802281e-02  2.4686344051679117e-03  6.9688992176135671e-05  8.9504568257022194e-04  1.2730104831551519e-03  4.3906611760774348e-04  2.6600800113203823e-04  3.8940045678033317e-03  1.3919207438773333e-02  3.0839779494673366e-02  5.2267070214606880e-02  7.3239654146692479e-02  8.7657702515444871e-02  9.0470245117161383e-02  7.9899571868292288e-02  5.8605183450481692e-02  3.3005746722461086e-02  1.1211101439288190e-02  6.7721176195895811e-04  6.0819525984568386e-03  2.7707017343328956e-02  6.1626268755597943e-02  1.0193973428816634e-01  1.4260575648215382e-01  1.7723316050694896e-01  1.9869809370392280e-01  2.0122337579457172e-01  1.8378782549944966e-01  1.5122279825354540e-01  1.1189598368830232e-01  7.4078966989297071e-02  4.3415315312060589e-02  2.2183529375442729e-02  9.7999888413405657e-03  3.9368640507658299e-03  1.8870137692720802e-03  1.8732861769034503e-03  3.9427159863960996e-03  1.0139229572029848e-02  2.3867662164678755e-02  4.8721702503249163e-02  8.7405476615450978e-02  1.4108346775779659e-01  2.0844897545417332e-01  2.8390954331364565e-01  3.5667247764055854e-01  4.1367444242393386e-01  4.4473578660137847e-01  4.4521006604331104e-01  4.1555730810143465e-01  3.6026749357411342e-01  2.8748567796245106e-01  2.0855315288776757e-01  1.3545589847139958e-01  7.6813224342630146e-02  3.5956750556026179e-02  1.2026004061535336e-02  1.7187086545168340e-03  3.3329587743949991e-04  2.6958180653093361e-03  4.5186784463198456e-03  3.7481872481310227e-03  1.2105154640963409e-03  3.0946331575938809e-04  5.9302851963204239e-03  2.2963574304031877e-02  5.4843284237856629e-02  1.0209988955372439e-01  1.6106572091365157e-01  2.2382078011633944e-01  2.7997464301192887e-01  3.1880201559152316e-01  3.3060049519837775e-01  3.0894988375502025e-01  2.5615058879316677e-01  1.8747113516800681e-01  1.2236042341915403e-01  7.1154476230268035e-02  3.5396396939082711e-02  1.3257596684243707e-02  2.3424284585972502e-03  1.7613654913853309e-04  2.9051076782152796e-01  2.6926968508181620e-01  2.1758726947531831e-01  1.4616007620849356e-01  7.3695358078379597e-02  2.0983864117560629e-02  1.0320437329839193e-03  1.7407415780131493e-02  6.5773549702237769e-02  1.3329877477594118e-01  2.0087598731047698e-01  2.5090697214782981e-01  2.7334200073401738e-01  2.6612284187307161e-01  2.3356526481534090e-01  1.8448143928018507e-01  1.2964959973419415e-01  7.9102488106074287e-02  3.9991669532819109e-02  1.5254691260647803e-02  3.4537103248378437e-03  1.6839403428037884e-04  3.8208394033586128e-04  6.4040401944478098e-04  1.5046553781768063e-04  5.8515117944388381e-04  4.8184107437565975e-03  1.5200348535273713e-02  3.2051227763111756e-02  5.2903898345948240e-02  7.2840379338616368e-02  8.5931344742802993e-02  8.7405378310859733e-02  7.5817131551243061e-02  5.4128174210652559e-02  2.8975036438010804e-02  8.5922358640019344e-03  4.4311481094453362e-04  8.9994190605827504e-03  3.4067189475932354e-02  7.1168102037658956e-02  1.1403938141115184e-01  1.5646385595645407e-01  1.9184543272983687e-01  2.1273233634576741e-01  2.1316254949695401e-01  1.9243254877522120e-01  1.5615092461442120e-01  1.1353304085067741e-01  7.3410183029819776e-02  4.1571530948808576e-02  2.0108774653651910e-02  8.0725994792456759e-03  2.7291111675594032e-03  1.0359412042161753e-03  1.0290555087016076e-03  2.7408728873190499e-03  8.3366456869381940e-03  2.1403320928779505e-02  4.5690588881895873e-02  8.3933341091687277e-02  1.3711624272369616e-01  2.0358133673303072e-01  2.7747331966385425e-01  3.4815348732746171e-01  4.0305909049379995e-01  4.3246556771521949e-01  4.3202091555695687e-01  4.0244532204393035e-01  3.4846591374783686e-01  2.7823561983792999e-01  2.0262282755758038e-01  1.3277706157535080e-01  7.6603412122631789e-02  3.7125491556907773e-02  1.3490291877797829e-02  2.5936015637854472e-03  1.2056372569323134e-04  1.4364737908416935e-03  2.7586586704818395e-03  2.2633465144656227e-03  5.8423773481315925e-04  5.1482787671636729e-04  6.0609189552883009e-03  2.1186361704409868e-02  4.8570063241022719e-02  8.8432952549810123e-02  1.3760285759592045e-01  1.8959096093701247e-01  2.3606084538574615e-01  2.6857073296003053e-01  2.7962692528403804e-01  2.6417678727094279e-01  2.2329128738196463e-01  1.6760400379731291e-01  1.1246471444207719e-01  6.7592938324111729e-02  3.5371852771180760e-02  1.4715802044556789e-02  3.6393089894912909e-03  1.5921314654149116e-04  2.5088932372901018e-01  2.3808627501663079e-01  1.9876559859023893e-01  1.4041622301931547e-01  7.7624394970785243e-02  2.7520039994913804e-02  2.5366292942725016e-03  7.5141257917602927e-03  4.0466965416693014e-02  9.2788349921336014e-02  1.5014078071944217e-01  1.9708139690718784e-01  2.2285240721234223e-01  2.2371780641524552e-01  2.0215278781157095e-01  1.6492555041972837e-01  1.2079575779870658e-01  7.8233260925754555e-02  4.3597517577819433e-02  1.9981575493580782e-02  6.9809790556634417e-03  1.6451291021746454e-03  2.6683574690364081e-04  1.2225871866314083e-04  4.2930460362981972e-04  2.2648360856485092e-03  7.6020724409899178e-03  1.7939353446237181e-02  3.3089400220961601e-02  5.0617598595888581e-02  6.6225671524406657e-02  7.5055371712848498e-02  7.3545402370322685e-02  6.1160603691759186e-02  4.1119633184325440e-02  1.9645913806629303e-02  4.1506903008786244e-03  1.1193944243165460e-03  1.4054932825590793e-02  4.2053991019686064e-02  8.0410275967425102e-02  1.2296570926763897e-01  1.6365287609139176e-01  1.9613072776275717e-01  2.1359210266296785e-01  2.1101881368519082e-01  1.8845225367781646e-01  1.5170966927664958e-01  1.0973486391163038e-01  7.0852025982595726e-02  4.0326679300752996e-02  1.9866567246849213e-02  8.3678660801470729e-03  3.1760533698626356e-03  1.4870371867068734e-03  1.6012857386610156e-03  3.6910617435126324e-03  9.8264363653507245e-03  2.3256614168666263e-02  4.7251275439568190e-02  8.3996497930028655e-02  1.3380013881228234e-01  1.9428984199561064e-01  2.5950218344653397e-01  3.2006829488922417e-01  3.6571665707066148e-01  3.8873942390848898e-01  3.8588641476101498e-01  3.5826384988628918e-01  3.1045138133793115e-01  2.4970006844145951e-01  1.8496399296606961e-01  1.2499384667625740e-01  7.5972490379646027e-02  4.0415168765898575e-02  1.7801059203639464e-02  5.7635961730828234e-03  1.0158585318614012e-03  1.2378535409102474e-04  3.2811887226792566e-04  2.4434392729149197e-04  1.5237228646728250e-04  1.7699399099924864e-03  7.6094578009985956e-03  2.0130496696585742e-02  4.0885748117011941e-02  6.9766790754814706e-02  1.0451862002880337e-01  1.4088748122042594e-01  1.7352507138422330e-01  1.9708242796269831e-01  2.0691017116396301e-01  1.9976465031076782e-01  1.7549183929569170e-01  1.3906714432413395e-01  9.9519050256950889e-02  6.4598120394632183e-02  3.7655865636380605e-02  1.8928933504346344e-02  7.3475721536024000e-03  1.9144369836244105e-03  1.9080405210490606e-01  1.8662208846083109e-01  1.6221877233121218e-01  1.2145374809374292e-01  7.4182315835439674e-02  3.2456226385714736e-02  6.4365348758287835e-03  1.5323627467520500e-03  1.7989501279976002e-02  5.1257062458887642e-02  9.2594930102704920e-02  1.3110661911952495e-01  1.5737514428562210e-01  1.6639621871544108e-01  1.5815094550955910e-01  1.3644033452446203e-01  1.0710857151440063e-01  7.6298642632123853e-02  4.9043351930215660e-02  2.8342962302542300e-02  1.4881206748772866e-02  7.4932629373379075e-03  4.2058521939638801e-03  3.3496855483693055e-03  4.2441473684526262e-03  7.2204653331870783e-03  1.3056726331096511e-02  2.2126389458005116e-02  3.3660679064295387e-02  4.5486653234963800e-02  5.4436422757509095e-02  5.7365229218942722e-02  5.2452744148888501e-02  4.0262791669989841e-02  2.4025818757313723e-02  8.9402036675976359e-03  7.7432999549682867e-04  4.2171754678380080e-03  2.1288037437027368e-02  5.0427098012674094e-02  8.7156230337574456e-02  1.2584620341125899e-01  1.6088616048396470e-01  1.8674744382942579e-01  1.9830657780070823e-01  1.9253861504255237e-01  1.7048032308536110e-01  1.3737824848007943e-01  1.0060277073925331e-01  6.6831390721634104e-02  4.0206427257914963e-02  2.1999001768315214e-02  1.1285702329329048e-02  6.0304094083581082e-03  4.2181608491094038e-03  4.7868654261772605e-03  8.1098199180061753e-03  1.5886655531468449e-02  3.0507012196126396e-02  5.4144227597515242e-02  8.7882883923820238e-02  1.3102688535239013e-01  1.8057640627784793e-01  2.3108094895054626e-01  2.7543289055438369e-01  3.0672255667540976e-01  3.2020963540988950e-01  3.1432831362299662e-01  2.9058178471375384e-01  2.5285714093578332e-01  2.0662116467521735e-01  1.5801932596506660e-01  1.1270314815570426e-01  7.4655025250928556e-02  4.5659887076057955e-02  2.5598686348549889e-02  1.3118615429275598e-02  6.2758578282751882e-03  3.0704876384881901e-03  1.8966575369068655e-03  1.8613094876503110e-03  2.8922983510919517e-03  5.6113378085612207e-03  1.1021734761713460e-02  2.0102202178483592e-02  3.3396768273852379e-02  5.0675837437521756e-02  7.0758664302992033e-02  9.1603364531497769e-02  1.1067059971372044e-01  1.2537193655282797e-01  1.3338982939952834e-01  1.3293976292995807e-01  1.2332633569915176e-01  1.0580930886467291e-01  8.3827491514411295e-02  6.1583949158504979e-02  4.2092190075952780e-02  2.6636219227167569e-02  1.5270469751482678e-02  8.2864477752378415e-03  1.2228207307214874e-01  1.2527510885025503e-01  1.1577524605637762e-01  9.3897363025845101e-02  6.4775153454084661e-02  3.5334648610126175e-02  1.2510992497652189e-02  1.2840837105449704e-03  3.6353774576138409e-03  1.8417904261918562e-02  4.1731365209275034e-02  6.7757351292933421e-02  9.0279148011420993e-02  1.0454468550348796e-01  1.0847753704170349e-01  1.0271096689441477e-01  8.9788996997183679e-02  7.3108576335897596e-02  5.5964539489648434e-02  4.0861559526879990e-02  2.9179676780445675e-02  2.1229652799022062e-02  1.6625047898062809e-02  1.4767482821218269e-02  1.5203293573647417e-02  1.7701145772022520e-02  2.2055551592245523e-02  2.7758585343270564e-02  3.3750645022652299e-02  3.8438330111288894e-02  4.0057986041510986e-02  3.7305840601749289e-02  3.0010618555126212e-02  1.9554559806106951e-02  8.8087180315942690e-03  1.5384489842195004e-03  1.4411847066586813e-03  1.1056378159749044e-02  3.0817547137059850e-02  5.8686947116839132e-02  9.0724339607022808e-02  1.2221271027377216e-01  1.4854018212789713e-01  1.6565808614511324e-01  1.7063294256105127e-01  1.6254447925346774e-01  1.4316442213879954e-01  1.1664089297548005e-01  8.8125047410006471e-02  6.2103726237128974e-02  4.1328116383685783e-02  2.6658050812483361e-02  1.7564652270286418e-02  1.2897230602986268e-02  1.1629165888646504e-02  1.3386287270107365e-02  1.8624288714703546e-02  2.8425426244138484e-02  4.4010900951303174e-02  6.6142980820199052e-02  9.4583255989310985e-02  1.2772789629386949e-01  1.6254077964705935e-01  1.9493011144635294e-01  2.2059884098263474e-01  2.3609835154814793e-01  2.3962219172201651e-01  2.3124732539734522e-01  2.1267399063402825e-01  1.8670693196423932e-01  1.5668432176854047e-01  1.2592578051571895e-01  9.7222630916645084e-02  7.2468329480042698e-02  5.2550071216956561e-02  3.7501525126188089e-02  2.6792948205158162e-02  1.9628497455781269e-02  1.5183302583386521e-02  1.2762504061819970e-02  1.1883525009130298e-02  1.2289753028639126e-02  1.3910366666403905e-02  1.6786286603911776e-02  2.0982732589894290e-02  2.6505445053336508e-02  3.3234232282084698e-02  4.0885896019311162e-02  4.9014478654959101e-02  5.7043810038628309e-02  6.4309990848114867e-02  7.0090749828498958e-02  7.3633393030153343e-02  7.4248459970976607e-02  7.1536275220308462e-02  6.5666981848862591e-02  5.7457321382974061e-02  4.8076797822347944e-02  3.8607541598332525e-02  2.9707475748459517e-02  2.2740106152970271e-02  6.0939052829995934e-02  6.7692590622926319e-02  6.9372466593183121e-02  6.3612925278322754e-02  5.1635347692101617e-02  3.6011132130308321e-02  2.0218858331477255e-02  7.7453747176291395e-03  1.2147488655580429e-03  1.8321786480874935e-03  9.2368234135428232e-03  2.1686305612685620e-02  3.6499685298693782e-02  5.0727903695955714e-02  6.1908792270148415e-02  6.8614180041414327e-02  7.0588158002415982e-02  6.8524499120615007e-02  6.3669283314765568e-02  5.7416984721393498e-02  5.0999069720176239e-02  4.5306573860604195e-02  4.0844198592819222e-02  3.7776423037067089e-02  3.6005369617373946e-02  3.5229409566361350e-02  3.4968110666961517e-02  3.4581617169457887e-02  3.3335264945764963e-02  3.0548531909493200e-02  2.5824739353901865e-02  1.9303537600337681e-02  1.1838178941929241e-02  4.9967496621911023e-03  8.3146250819699104e-04  1.4390522701965851e-03  8.4073498641869769e-03  2.2281654907902185e-02  4.2216832611099313e-02  6.5995577393737070e-02  9.0470433572054754e-02  1.1224263489645775e-01  1.2830060612944769e-01  1.3650474035940333e-01  1.3594980721018876e-01  1.2717904135863464e-01  1.1211055527178231e-01  9.3574182636856670e-02  7.4563711704019223e-02  5.7510785504065014e-02  4.3882571140084474e-02  3.4195768038822405e-02  2.8325992334504221e-02  2.5915704005029412e-02  2.6713646382637721e-02  3.0741246416654301e-02  3.8251914273701101e-02  4.9520016546377589e-02  6.4547782509279630e-02  8.2795747448499823e-02  1.0303392004622382e-01  1.2339053673218595e-01  1.4163171007194711e-01  1.5561887464220744e-01  1.6379155451774702e-01  1.6549106147497916e-01  1.6101821922891235e-01  1.5144854217332063e-01  1.3831652611035342e-01  1.2328664310896603e-01  1.0788357411802876e-01  9.3310544401943807e-02  8.0362803180202724e-02  6.9429286673667628e-02  6.0559039248481432e-02  5.3558749605554887e-02  4.8091654764825964e-02  4.3761284338947590e-02  4.0176455711026633e-02  3.7000677776439637e-02  3.3989029883904037e-02  3.1011576018299437e-02  2.8058824423646614e-02  2.5225418203739958e-02  2.2674182716407185e-02  2.0590976113557678e-02  1.9145987399366470e-02  1.8474645864716321e-02  1.8681119272867246e-02  1.9854546687719948e-02  2.2079230881073962e-02  2.5418888800215672e-02  2.9862658238973813e-02  3.5237781404941396e-02  4.1122179307724202e-02  4.6820290171998451e-02  5.1461300687710543e-02  5.4209746598515782e-02  5.4494792329066663e-02  5.2045433766939778e-02  4.7976425709117324e-02  1.9011580938202901e-02  2.5360716690812957e-02  3.1976554339786897e-02  3.6309571516646558e-02  3.7365432069562853e-02  3.4701344366194146e-02  2.8710822778486519e-02  2.0587108696305617e-02  1.2075178938529911e-02  5.0716068792613332e-03  1.2000395884680525e-03  1.4857733843427899e-03  6.1925455217969605e-03  1.4821836080078402e-02  2.6252979547631776e-02  3.8998790938575438e-02  5.1521781914676573e-02  6.2520344564518784e-02  7.1103005858635271e-02  7.6824767095249186e-02  7.9618318475249028e-02  7.9676719807805177e-02  7.7334279064641617e-02  7.2971133116198045e-02  6.6950924534317377e-02  5.9593582075720263e-02  5.1182407441378495e-02  4.2001747781363508e-02  3.2396624959040728e-02  2.2839050216234072e-02  1.3978503522012086e-02  6.6493350800595008e-03  1.8114997053862909e-03  4.1736432956857478e-04  3.2224391781764073e-03  1.0579639060067562e-02  2.2266099968319297e-02  3.7392658004838535e-02  5.4443388587887165e-02  7.1472671085880693e-02  8.6436009134975858e-02  9.7571171102629098e-02  1.0372367133027718e-01  1.0453614749693513e-01  1.0046670282534209e-01  9.2642837722178475e-02  8.2591470358959487e-02  7.1915027120946121e-02  6.2002857977527713e-02  5.3857552827031953e-02  4.8068276297819526e-02  4.4901245421193378e-02  4.4436849594368485e-02  4.6679220308257552e-02  5.1589852479600844e-02  5.9036678910094453e-02  6.8688599844166018e-02  7.9910763680910102e-02  9.1721725246101074e-02  1.0285942152427953e-01  1.1196934815960495e-01  1.1787846469843202e-01  1.1986893696903597e-01  1.1784880544084757e-01  1.1235370626864526e-01  1.0438776806458737e-01  9.5175843507511237e-02  8.5917818820243352e-02  7.7610990873499638e-02  7.0964654311690661e-02  6.6394419750283470e-02  6.4060805792044442e-02  6.3909884663614316e-02  6.5685316319901224e-02  6.8908094982444018e-02  7.2851200233421690e-02  7.6554925007645686e-02  7.8922697758228633e-02  7.8906362496725183e-02  7.5747295290632524e-02  6.9204130755953150e-02  5.9683287723731347e-02  4.8202868518428740e-02  3.6169265945423378e-02  2.5022492735369752e-02  1.5873974228718227e-02  9.2689146224636618e-03  5.1478071928756581e-03  3.0062874544980298e-03  2.1971591995878330e-03  2.2768701101331997e-03  3.2681644210564176e-03  5.7207189881289212e-03  1.0518112226747676e-02  1.8472957659605025e-02  2.9834374294255544e-02  4.3887157872591988e-02  5.8834138067974225e-02  7.2089476055655563e-02  8.0922892708133395e-02  8.3687146590561104e-02  1.3011208211921631e-03  3.6764901691221062e-03  8.7576186229398265e-03  1.5994718049168404e-02  2.4268581849820264e-02  3.1863484425366344e-02  3.6938272669950929e-02  3.8069235738955667e-02  3.4718290637375068e-02  2.7480009456571766e-02  1.8031658544237689e-02  8.7865062303361663e-03  2.3411763019607853e-03  8.9356181369412984e-04  5.7949583688160231e-03  1.7289428111037435e-02  3.4432124161071012e-02  5.5213769809481707e-02  7.6926463981755386e-02  9.6695514343011796e-02  1.1198895811871673e-01  1.2096377642068896e-01  1.2264983898336311e-01  1.1702892709650696e-01  1.0500914277599949e-01  8.8252961141311190e-02  6.8871575787055064e-02  4.9081125901348069e-02  3.0924187683977488e-02  1.6091507859387493e-02  5.8150467404490024e-03  7.9684454810326818e-04  1.1699046758170120e-03  6.5089492381245053e-03  1.5900042540696078e-02  2.8057465141822443e-02  4.1470571880221942e-02  5.4573360852339020e-02  6.5933035095476586e-02  7.4438845165966008e-02  7.9452354168429384e-02  8.0876777405480937e-02  7.9123623783370720e-02  7.4988031587134282e-02  6.9471480752266251e-02  6.3600760677004833e-02  5.8285847098152856e-02  5.4242553233039746e-02  5.1982923664285030e-02  5.1852281648644513e-02  5.4075172590054982e-02  5.8771336802554572e-02  6.5919023794306961e-02  7.5270763886887498e-02  8.6255843900278337e-02  9.7922389792781561e-02  1.0897053806218228e-01  1.1790460775517340e-01  1.2329394299721914e-01  1.2408889614196073e-01  1.1990018739116244e-01  1.1113728241638472e-01  9.8938084188078521e-02  8.4903580028689932e-02  7.0733070961478225e-02  5.7888331662887593e-02  4.7387595388588943e-02  3.9771388229486213e-02  3.5222075349435132e-02  3.3769331173114425e-02  3.5482206907702624e-02  4.0548686921538256e-02  4.9183499465078655e-02  6.1374178629286062e-02  7.6550296349493521e-02  9.3317113947875549e-02  1.0941011500236368e-01  1.2197781159078548e-01  1.2818435611888190e-01  1.2598667905450195e-01  1.1484560729301931e-01  9.6098524989953041e-02  7.2767476183614163e-02  4.8768016287855355e-02  2.7804297931684183e-02  1.2421232284434930e-02  3.5213106159562098e-03  3.5779165757192225e-04  9.1758488346067413e-04  2.6563560001742837e-03  3.4687894100972521e-03  2.5653174603639064e-03  8.6991180981624088e-04  7.5378327019623361e-04  5.1866168851551243e-03  1.6577796124000649e-02  3.5676662068216534e-02  6.0873522696174805e-02  8.8126749404952923e-02  1.1181865690011938e-01  1.2515277061610824e-01  6.0775443278315820e-03  2.1020679213353184e-03  5.1670571744157773e-04  4.2700962144986438e-03  1.3884428898428896e-02  2.8064868724553580e-02  4.3823759602008357e-02  5.7265160623129675e-02  6.4739343292466472e-02  6.3965494752214525e-02  5.4780988502125628e-02  3.9378049891055172e-02  2.1917795528824602e-02  7.4797038068624101e-03  7.0949876342067631e-04  4.7453060849412055e-03  2.0603536801662430e-02  4.6866662470974062e-02  7.9731685714378428e-02  1.1372762281104562e-01  1.4302303516610476e-01  1.62703172351