<?xml version="1.0"?>
<VTKFile type="UnstructuredGrid"  version="0.1"  >
<UnstructuredGrid>
<Piece  NumberOfPoints="20201" NumberOfCells="40000">
<Points>
<DataArray  type="Float64"  NumberOfComponents="3"  format="ascii">0 0 0  2 0 0  4 0 0  6 0 0  8 0 0  10 0 0  12 0 0  14 0 0  16 0 0  18 0 0  20 0 0  22 0 0  24 0 0  26 0 0  28 0 0  30 0 0  32 0 0  34 0 0  36 0 0  38 0 0  40 0 0  42 0 0  44 0 0  46 0 0  48 0 0  50 0 0  52 0 0  54 0 0  56 0 0  58 0 0  60 0 0  62 0 0  64 0 0  66 0 0  68 0 0  70 0 0  72 0 0  74 0 0  76 0 0  78 0 0  80 0 0  82 0 0  84 0 0  86 0 0  88 0 0  90 0 0  92 0 0  94 0 0  96 0 0  98 0 0  100 0 0  102 0 0  104 0 0  106 0 0  108 0 0  110 0 0  112 0 0  114 0 0  116 0 0  118 0 0  120 0 0  122 0 0  124 0 0  126 0 0  128 0 0  130 0 0  132 0 0  134 0 0  136 0 0  138 0 0  140 0 0  142 0 0  144 0 0  146 0 0  148 0 0  150 0 0  152 0 0  154 0 0  156 0 0  158 0 0  160 0 0  162 0 0  164 0 0  166 0 0  168 0 0  170 0 0  172 0 0  174 0 0  176 0 0  178 0 0  180 0 0  182 0 0  184 0 0  186 0 0  188 0 0  190 0 0  192 0 0  194 0 0  196 0 0  198 0 0  200 0 0  0 2 0  2 2 0  4 2 0  6 2 0  8 2 0  10 2 0  12 2 0  14 2 0  16 2 0  18 2 0  20 2 0  22 2 0  24 2 0  26 2 0  28 2 0  30 2 0  32 2 0  34 2 0  36 2 0  38 2 0  40 2 0  42 2 0  44 2 0  46 2 0  48 2 0  50 2 0  52 2 0  54 2 0  56 2 0  58 2 0  60 2 0  62 2 0  64 2 0  66 2 0  68 2 0  70 2 0  72 2 0  74 2 0  76 2 0  78 2 0  80 2 0  82 2 0  84 2 0  86 2 0  88 2 0  90 2 0  92 2 0  94 2 0  96 2 0  98 2 0  100 2 0  102 2 0  104 2 0  106 2 0  108 2 0  110 2 0  112 2 0  114 2 0  116 2 0  118 2 0  120 2 0  122 2 0  124 2 0  126 2 0  128 2 0  130 2 0  132 2 0  134 2 0  136 2 0  138 2 0  140 2 0  142 2 0  144 2 0  146 2 0  148 2 0  150 2 0  152 2 0  154 2 0  156 2 0  158 2 0  160 2 0  162 2 0  164 2 0  166 2 0  168 2 0  170 2 0  172 2 0  174 2 0  176 2 0  178 2 0  180 2 0  182 2 0  184 2 0  186 2 0  188 2 0  190 2 0  192 2 0  194 2 0  196 2 0  198 2 0  200 2 0  0 4 0  2 4 0  4 4 0  6 4 0  8 4 0  10 4 0  12 4 0  14 4 0  16 4 0  18 4 0  20 4 0  22 4 0  24 4 0  26 4 0  28 4 0  30 4 0  32 4 0  34 4 0  36 4 0  38 4 0  40 4 0  42 4 0  44 4 0  46 4 0  48 4 0  50 4 0  52 4 0  54 4 0  56 4 0  58 4 0  60 4 0  62 4 0  64 4 0  66 4 0  68 4 0  70 4 0  72 4 0  74 4 0  76 4 0  78 4 0  80 4 0  82 4 0  84 4 0  86 4 0  88 4 0  90 4 0  92 4 0  94 4 0  96 4 0  98 4 0  100 4 0  102 4 0  104 4 0  106 4 0  108 4 0  110 4 0  112 4 0  114 4 0  116 4 0  118 4 0  120 4 0  122 4 0  124 4 0  126 4 0  128 4 0  130 4 0  132 4 0  134 4 0  136 4 0  138 4 0  140 4 0  142 4 0  144 4 0  146 4 0  148 4 0  150 4 0  152 4 0  154 4 0  156 4 0  158 4 0  160 4 0  162 4 0  164 4 0  166 4 0  168 4 0  170 4 0  172 4 0  174 4 0  176 4 0  178 4 0  180 4 0  182 4 0  184 4 0  186 4 0  188 4 0  190 4 0  192 4 0  194 4 0  196 4 0  198 4 0  200 4 0  0 6 0  2 6 0  4 6 0  6 6 0  8 6 0  10 6 0  12 6 0  14 6 0  16 6 0  18 6 0  20 6 0  22 6 0  24 6 0  26 6 0  28 6 0  30 6 0  32 6 0  34 6 0  36 6 0  38 6 0  40 6 0  42 6 0  44 6 0  46 6 0  48 6 0  50 6 0  52 6 0  54 6 0  56 6 0  58 6 0  60 6 0  62 6 0  64 6 0  66 6 0  68 6 0  70 6 0  72 6 0  74 6 0  76 6 0  78 6 0  80 6 0  82 6 0  84 6 0  86 6 0  88 6 0  90 6 0  92 6 0  94 6 0  96 6 0  98 6 0  100 6 0  102 6 0  104 6 0  106 6 0  108 6 0  110 6 0  112 6 0  114 6 0  116 6 0  118 6 0  120 6 0  122 6 0  124 6 0  126 6 0  128 6 0  130 6 0  132 6 0  134 6 0  136 6 0  138 6 0  140 6 0  142 6 0  144 6 0  146 6 0  148 6 0  150 6 0  152 6 0  154 6 0  156 6 0  158 6 0  160 6 0  162 6 0  164 6 0  166 6 0  168 6 0  170 6 0  172 6 0  174 6 0  176 6 0  178 6 0  180 6 0  182 6 0  184 6 0  186 6 0  188 6 0  190 6 0  192 6 0  194 6 0  196 6 0  198 6 0  200 6 0  0 8 0  2 8 0  4 8 0  6 8 0  8 8 0  10 8 0  12 8 0  14 8 0  16 8 0  18 8 0  20 8 0  22 8 0  24 8 0  26 8 0  28 8 0  30 8 0  32 8 0  34 8 0  36 8 0  38 8 0  40 8 0  42 8 0  44 8 0  46 8 0  48 8 0  50 8 0  52 8 0  54 8 0  56 8 0  58 8 0  60 8 0  62 8 0  64 8 0  66 8 0  68 8 0  70 8 0  72 8 0  74 8 0  76 8 0  78 8 0  80 8 0  82 8 0  84 8 0  86 8 0  88 8 0  90 8 0  92 8 0  94 8 0  96 8 0  98 8 0  100 8 0  102 8 0  104 8 0  106 8 0  108 8 0  110 8 0  112 8 0  114 8 0  116 8 0  118 8 0  120 8 0  122 8 0  124 8 0  126 8 0  128 8 0  130 8 0  132 8 0  134 8 0  136 8 0  138 8 0  140 8 0  142 8 0  144 8 0  146 8 0  148 8 0  150 8 0  152 8 0  154 8 0  156 8 0  158 8 0  160 8 0  162 8 0  164 8 0  166 8 0  168 8 0  170 8 0  172 8 0  174 8 0  176 8 0  178 8 0  180 8 0  182 8 0  184 8 0  186 8 0  188 8 0  190 8 0  192 8 0  194 8 0  196 8 0  198 8 0  200 8 0  0 10 0  2 10 0  4 10 0  6 10 0  8 10 0  10 10 0  12 10 0  14 10 0  16 10 0  18 10 0  20 10 0  22 10 0  24 10 0  26 10 0  28 10 0  30 10 0  32 10 0  34 10 0  36 10 0  38 10 0  40 10 0  42 10 0  44 10 0  46 10 0  48 10 0  50 10 0  52 10 0  54 10 0  56 10 0  58 10 0  60 10 0  62 10 0  64 10 0  66 10 0  68 10 0  70 10 0  72 10 0  74 10 0  76 10 0  78 10 0  80 10 0  82 10 0  84 10 0  86 10 0  88 10 0  90 10 0  92 10 0  94 10 0  96 10 0  98 10 0  100 10 0  102 10 0  104 10 0  106 10 0  108 10 0  110 10 0  112 10 0  114 10 0  116 10 0  118 10 0  120 10 0  122 10 0  124 10 0  126 10 0  128 10 0  130 10 0  132 10 0  134 10 0  136 10 0  138 10 0  140 10 0  142 10 0  144 10 0  146 10 0  148 10 0  150 10 0  152 10 0  154 10 0  156 10 0  158 10 0  160 10 0  162 10 0  164 10 0  166 10 0  168 10 0  170 10 0  172 10 0  174 10 0  176 10 0  178 10 0  180 10 0  182 10 0  184 10 0  186 10 0  188 10 0  190 10 0  192 10 0  194 10 0  196 10 0  198 10 0  200 10 0  0 12 0  2 12 0  4 12 0  6 12 0  8 12 0  10 12 0  12 12 0  14 12 0  16 12 0  18 12 0  20 12 0  22 12 0  24 12 0  26 12 0  28 12 0  30 12 0  32 12 0  34 12 0  36 12 0  38 12 0  40 12 0  42 12 0  44 12 0  46 12 0  48 12 0  50 12 0  52 12 0  54 12 0  56 12 0  58 12 0  60 12 0  62 12 0  64 12 0  66 12 0  68 12 0  70 12 0  72 12 0  74 12 0  76 12 0  78 12 0  80 12 0  82 12 0  84 12 0  86 12 0  88 12 0  90 12 0  92 12 0  94 12 0  96 12 0  98 12 0  100 12 0  102 12 0  104 12 0  106 12 0  108 12 0  110 12 0  112 12 0  114 12 0  116 12 0  118 12 0  120 12 0  122 12 0  124 12 0  126 12 0  128 12 0  130 12 0  132 12 0  134 12 0  136 12 0  138 12 0  140 12 0  142 12 0  144 12 0  146 12 0  148 12 0  150 12 0  152 12 0  154 12 0  156 12 0  158 12 0  160 12 0  162 12 0  164 12 0  166 12 0  168 12 0  170 12 0  172 12 0  174 12 0  176 12 0  178 12 0  180 12 0  182 12 0  184 12 0  186 12 0  188 12 0  190 12 0  192 12 0  194 12 0  196 12 0  198 12 0  200 12 0  0 14 0  2 14 0  4 14 0  6 14 0  8 14 0  10 14 0  12 14 0  14 14 0  16 14 0  18 14 0  20 14 0  22 14 0  24 14 0  26 14 0  28 14 0  30 14 0  32 14 0  34 14 0  36 14 0  38 14 0  40 14 0  42 14 0  44 14 0  46 14 0  48 14 0  50 14 0  52 14 0  54 14 0  56 14 0  58 14 0  60 14 0  62 14 0  64 14 0  66 14 0  68 14 0  70 14 0  72 14 0  74 14 0  76 14 0  78 14 0  80 14 0  82 14 0  84 14 0  86 14 0  88 14 0  90 14 0  92 14 0  94 14 0  96 14 0  98 14 0  100 14 0  102 14 0  104 14 0  106 14 0  108 14 0  110 14 0  112 14 0  114 14 0  116 14 0  118 14 0  120 14 0  122 14 0  124 14 0  126 14 0  128 14 0  130 14 0  132 14 0  134 14 0  136 14 0  138 14 0  140 14 0  142 14 0  144 14 0  146 14 0  148 14 0  150 14 0  152 14 0  154 14 0  156 14 0  158 14 0  160 14 0  162 14 0  164 14 0  166 14 0  168 14 0  170 14 0  172 14 0  174 14 0  176 14 0  178 14 0  180 14 0  182 14 0  184 14 0  186 14 0  188 14 0  190 14 0  192 14 0  194 14 0  196 14 0  198 14 0  200 14 0  0 16 0  2 16 0  4 16 0  6 16 0  8 16 0  10 16 0  12 16 0  14 16 0  16 16 0  18 16 0  20 16 0  22 16 0  24 16 0  26 16 0  28 16 0  30 16 0  32 16 0  34 16 0  36 16 0  38 16 0  40 16 0  42 16 0  44 16 0  46 16 0  48 16 0  50 16 0  52 16 0  54 16 0  56 16 0  58 16 0  60 16 0  62 16 0  64 16 0  66 16 0  68 16 0  70 16 0  72 16 0  74 16 0  76 16 0  78 16 0  80 16 0  82 16 0  84 16 0  86 16 0  88 16 0  90 16 0  92 16 0  94 16 0  96 16 0  98 16 0  100 16 0  102 16 0  104 16 0  106 16 0  108 16 0  110 16 0  112 16 0  114 16 0  116 16 0  118 16 0  120 16 0  122 16 0  124 16 0  126 16 0  128 16 0  130 16 0  132 16 0  134 16 0  136 16 0  138 16 0  140 16 0  142 16 0  144 16 0  146 16 0  148 16 0  150 16 0  152 16 0  154 16 0  156 16 0  158 16 0  160 16 0  162 16 0  164 16 0  166 16 0  168 16 0  170 16 0  172 16 0  174 16 0  176 16 0  178 16 0  180 16 0  182 16 0  184 16 0  186 16 0  188 16 0  190 16 0  192 16 0  194 16 0  196 16 0  198 16 0  200 16 0  0 18 0  2 18 0  4 18 0  6 18 0  8 18 0  10 18 0  12 18 0  14 18 0  16 18 0  18 18 0  20 18 0  22 18 0  24 18 0  26 18 0  28 18 0  30 18 0  32 18 0  34 18 0  36 18 0  38 18 0  40 18 0  42 18 0  44 18 0  46 18 0  48 18 0  50 18 0  52 18 0  54 18 0  56 18 0  58 18 0  60 18 0  62 18 0  64 18 0  66 18 0  68 18 0  70 18 0  72 18 0  74 18 0  76 18 0  78 18 0  80 18 0  82 18 0  84 18 0  86 18 0  88 18 0  90 18 0  92 18 0  94 18 0  96 18 0  98 18 0  100 18 0  102 18 0  104 18 0  106 18 0  108 18 0  110 18 0  112 18 0  114 18 0  116 18 0  118 18 0  120 18 0  122 18 0  124 18 0  126 18 0  128 18 0  130 18 0  132 18 0  134 18 0  136 18 0  138 18 0  140 18 0  142 18 0  144 18 0  146 18 0  148 18 0  150 18 0  152 18 0  154 18 0  156 18 0  158 18 0  160 18 0  162 18 0  164 18 0  166 18 0  168 18 0  170 18 0  172 18 0  174 18 0  176 18 0  178 18 0  180 18 0  182 18 0  184 18 0  186 18 0  188 18 0  190 18 0  192 18 0  194 18 0  196 18 0  198 18 0  200 18 0  0 20 0  2 20 0  4 20 0  6 20 0  8 20 0  10 20 0  12 20 0  14 20 0  16 20 0  18 20 0  20 20 0  22 20 0  24 20 0  26 20 0  28 20 0  30 20 0  32 20 0  34 20 0  36 20 0  38 20 0  40 20 0  42 20 0  44 20 0  46 20 0  48 20 0  50 20 0  52 20 0  54 20 0  56 20 0  58 20 0  60 20 0  62 20 0  64 20 0  66 20 0  68 20 0  70 20 0  72 20 0  74 20 0  76 20 0  78 20 0  80 20 0  82 20 0  84 20 0  86 20 0  88 20 0  90 20 0  92 20 0  94 20 0  96 20 0  98 20 0  100 20 0  102 20 0  104 20 0  106 20 0  108 20 0  110 20 0  112 20 0  114 20 0  116 20 0  118 20 0  120 20 0  122 20 0  124 20 0  126 20 0  128 20 0  130 20 0  132 20 0  134 20 0  136 20 0  138 20 0  140 20 0  142 20 0  144 20 0  146 20 0  148 20 0  150 20 0  152 20 0  154 20 0  156 20 0
[...]
<PointData  Scalars="f_271-4"> 
<DataArray  type="Float64"  Name="f_271-4"  format="ascii">6.5181518682409919e-03  6.0169762333171601e-03  4.7450454435846437e-03  3.2089310355994730e-03  1.8679141159931522e-03  9.8201395726857398e-04  6.3656930749651894e-04  8.2096991274634038e-04  1.4649620423285491e-03  2.4143765492654853e-03  3.4115395210303893e-03  4.1524518560280017e-03  4.4149578944308607e-03  4.1663578108779862e-03  3.5519375245098178e-03  2.7786396127583435e-03  2.0099833424520384e-03  1.3395166762167731e-03  8.1143721213599532e-04  4.3918916361960261e-04  2.1051948356676768e-04  9.2183636963109585e-05  4.2988618206427424e-05  3.0537813051966501e-05  4.2436728190288808e-05  8.6951595360887233e-05  1.8403425418353283e-04  3.5091226249972941e-04  5.8680428628166321e-04  8.6132327943603810e-04  1.1129060422966318e-03  1.2645469885127997e-03  1.2572356178288480e-03  1.0849154300296218e-03  8.0435597768022788e-04  5.0958449169321489e-04  2.8989064465765197e-04  1.9610977599211538e-04  2.2626418396904098e-04  3.4355879294144140e-04  5.3415328287623166e-04  8.4930726215290007e-04  1.3488060916807035e-03  1.9904769406490306e-03  2.6059233452759762e-03  2.9852278373076026e-03  2.9900672139226655e-03  2.6282038424824731e-03  2.0413983357659136e-03  1.4143140501914474e-03  8.8220606354953344e-04  4.9930718079211733e-04  2.5931395389016678e-04  1.2938553548493939e-04  7.5744060072273909e-05  7.8115565051643774e-05  1.3378795487723499e-04  2.4419236714557621e-04  3.5578298249127878e-04  2.8681426202292271e-04  1.3557512857572968e-04  8.2582086153968457e-05  1.7050441827824336e-02  1.9828470069906259e-01  6.7063521880780030e-01  9.0698305820723646e-01  9.5117998012976612e-01  9.3412860951278065e-01  8.0575910436006337e-01  3.8068399137580572e-01  7.8730621632639150e-02  1.5523810905396956e-02  4.8632539331984921e-03  2.1119060076009110e-03  1.0038983001851114e-03  4.6683710726303645e-04  2.0473286981111493e-04  8.9628054545002741e-05  4.9108696908257860e-05  3.8932627392351734e-05  3.9134035898572609e-05  5.5158078276066553e-05  1.1631399060946918e-04  2.7110658222771571e-04  5.8168593015219753e-04  1.1158082113277318e-03  1.9273060186910666e-03  3.0122260745636402e-03  4.2350378548348137e-03  5.2547370371128820e-03  5.5519352042955432e-03  4.6248687999312556e-03  2.3503749340197462e-03  3.6133082743334969e-04  1.2768402321748047e-05  1.9459595598130077e-06  6.3574537512234233e-07  2.5587225670946586e-07  1.0075415484676145e-07  3.3380283962916834e-08  1.3825679957663415e-08  6.1583939920185297e-03  5.6991337015600422e-03  4.5259484835568188e-03  3.0929088938185753e-03  1.8233349028802190e-03  9.6742139813264804e-04  6.1469936047105060e-04  7.6146236062642723e-04  1.3454052563252076e-03  2.2258471229525240e-03  3.1652866312293910e-03  3.8797252356999033e-03  4.1562293025926896e-03  3.9545830447510590e-03  3.4013003747772755e-03  2.6859339848919229e-03  1.9633601867359435e-03  1.3255893448535438e-03  8.1802243838379200e-04  4.5598825068590861e-04  2.2983089725214499e-04  1.0966106407291016e-04  5.7608034544023120e-05  4.3486883948869752e-05  5.5379182948257631e-05  1.0036852143512334e-04  1.9617418379247275e-04  3.5759773654518554e-04  5.8221076241197762e-04  8.3982389099279426e-04  1.0717582869278115e-03  1.2063407633235038e-03  1.1902778357577484e-03  1.0205231361610162e-03  7.5252119914371023e-04  4.7598326388236163e-04  2.7558386915943494e-04  1.9877906734850874e-04  2.4163027476011500e-04  3.6683043832584693e-04  5.6121777081812225e-04  8.7666019525712245e-04  1.3726165356252357e-03  2.0064311910520855e-03  2.6101779897722377e-03  2.9762775577171800e-03  2.9705626265385900e-03  2.6045270944508201e-03  2.0205132482447362e-03  1.4005134890054266e-03  8.7624743556763863e-04  4.9965813605860952e-04  2.6384197815026842e-04  1.3647858983224987e-04  8.4735307769623705e-05  8.9236550544557789e-05  1.4820352887516999e-04  2.6639646689439534e-04  4.0898817316798271e-04  4.3008367977920292e-04  3.2294697812910880e-04  8.4254523180893152e-04  1.7928225149014446e-02  1.5574034951180404e-01  5.6808444230052757e-01  8.5634928801833243e-01  9.1855094982132557e-01  8.9219736604732047e-01  7.1426277551992123e-01  2.9269974444646968e-01  6.2392030260484101e-02  1.3698228738990716e-02  4.5723599299339751e-03  2.0557140704751354e-03  1.0042341796808365e-03  4.8308569387705457e-04  2.2308795462565052e-04  1.0480024932311418e-04  5.9931198094512371e-05  4.6707552711469805e-05  4.6064733467308528e-05  6.2408324890788781e-05  1.2201306295719984e-04  2.6851867571865072e-04  5.5734821449892518e-04  1.0475920516740220e-03  1.7838078372236369e-03  2.7576388941337039e-03  3.8462138723443754e-03  4.7533050531511313e-03  5.0348900294052857e-03  4.2680866025772727e-03  2.3417525927953197e-03  4.5861450757363165e-04  2.1883624332637249e-05  2.4314383641367996e-06  7.2427935918770608e-07  2.9244841181244521e-07  1.1971053700671180e-07  4.4587610405483774e-08  2.2023132575123636e-08  5.1904690746408418e-03  4.8368477661626342e-03  3.9164094131279754e-03  2.7551901081718953e-03  1.6831399525964721e-03  9.1942490675227413e-04  5.5996796225626011e-04  6.1751649881486867e-04  1.0499562874878249e-03  1.7504499787709691e-03  2.5331205014534433e-03  3.1674895688248088e-03  3.4683635771799123e-03  3.3804434806047026e-03  2.9843388221528662e-03  2.4240696557110250e-03  1.8293661382658222e-03  1.2854362792266176e-03  8.3908774579271076e-04  5.0980780156432894e-04  2.9446724666705470e-04  1.7193824250164968e-04  1.1320241644721106e-04  9.4110186803310903e-05  1.0420583385345899e-04  1.4759616557049590e-04  2.3622303334669905e-04  3.7872145960456593e-04  5.6886153626087375e-04  7.7786161157151112e-04  9.5559531011985617e-04  1.0449585125046948e-03  1.0075095141043120e-03  8.4741600942338507e-04  6.1586905333859700e-04  3.9056362128766592e-04  2.4345961374348818e-04  2.1301039329608374e-04  2.9110507868335296e-04  4.4061801952259669e-04  6.4953468855061009e-04  9.6669589869490891e-04  1.4454478245618956e-03  2.0420298577418380e-03  2.5963892250444758e-03  2.9152221637128183e-03  2.8798096011807494e-03  2.5103749883803781e-03  1.9458453686563911e-03  1.3561738077315405e-03  8.6117738556226178e-04  5.0653771723947185e-04  2.8471155592632775e-04  1.6590705813928315e-04  1.2069557026835990e-04  1.3253614593436720e-04  2.0191227885547154e-04  3.4015770878253635e-04  5.4729840903888348e-04  7.8551263147185997e-04  1.1116750991772460e-03  2.8567849497422222e-03  1.5209063679781792e-02  7.7753141738114928e-02  2.9093555229019219e-01  5.9853410365170534e-01  7.2340580732095561e-01  6.5742415213368943e-01  3.9708551291959754e-01  1.3311617440760454e-01  3.3967321657622840e-02  9.7057151364845079e-03  3.8499229106389891e-03  1.9060365303705639e-03  1.0083975659856755e-03  5.3589233628621258e-04  2.8614016325158602e-04  1.6230468981839842e-04  1.0722995822789100e-04  8.5709576419695750e-05  8.1128846734714489e-05  9.5454280916533726e-05  1.4757074505153273e-04  2.6929819394056370e-04  5.0007761182479344e-04  8.7932822561839861e-04  1.4321310027094701e-03  2.1435613438100043e-03  2.9226222262566481e-03  3.5724507061331936e-03  3.8101255787119639e-03  3.3720091082449152e-03  2.1831086106638372e-03  7.3341142817758118e-04  8.3634117598005829e-05  5.7727741080707456e-06  1.3170503715846843e-06  4.7710201035064638e-07  2.1739452436079709e-07  1.0439676014996195e-07  6.9353244091550693e-08  3.8963769628319153e-03  3.6686491938226558e-03  3.0578292077402948e-03  2.2473816672189608e-03  1.4509524765930000e-03  8.3668493739709427e-04  4.9750236905355359e-04  4.6244440568659880e-04  7.1371314900119012e-04  1.1850194341503323e-03  1.7537138259924377e-03  2.2595299026326068e-03  2.5607555602887404e-03  2.5942352739971521e-03  2.3906535269529045e-03  2.0368481916548057e-03  1.6248353499355313e-03  1.2241326758380378e-03  8.7838780597198631e-04  6.0976066269621387e-04  4.2217258561545279e-04  3.0513365477083967e-04  2.4095329916226052e-04  2.1365439634711485e-04  2.1532198026238890e-04  2.4696189847376069e-04  3.1390507057390686e-04  4.1803942670674751e-04  5.5010701198120919e-04  6.8558835748076005e-04  7.8761321920808771e-04  8.1874430602391253e-04  7.5875224147081569e-04  6.1910334256932618e-04  4.4355719307889410e-04  2.9271643482886681e-04  2.2076993008142808e-04  2.5421858631694292e-04  3.8155175228996556e-04  5.6874191492711714e-04  8.0332091487766272e-04  1.1203843925217123e-03  1.5553391933958837e-03  2.0645924198886305e-03  2.5129711675714395e-03  2.7433361522333968e-03  2.6665953708125334e-03  2.3114319409456917e-03  1.8012220921792275e-03  1.2792676943049145e-03  8.4418221649874554e-04  5.3286751442860639e-04  3.3886982871775506e-04  2.3807748197199894e-04  2.0729004257675769e-04  2.3438760003708482e-04  3.2197857106642380e-04  4.8508603025165711e-04  7.4449274706602159e-04  1.1327085703840001e-03  1.7991734208995581e-03  3.5193379767875935e-03  9.3911710511003256e-03  2.9634372071974946e-02  8.6138026542695506e-02  1.8852783586822414e-01  2.5745117208103585e-01  2.1447123196230197e-01  1.1228210759860023e-01  4.3095779370485705e-02  1.5088658084205899e-02  6.0347644379092893e-03  3.0031053696412883e-03  1.7082712131065189e-03  1.0252885636963208e-03  6.3637602565454340e-04  4.1544915552693755e-04  2.9446086104552586e-04  2.3085488487141492e-04  1.9788807513418315e-04  1.8237625379903159e-04  1.8418050469857247e-04  2.1458722560642517e-04  2.9303401840940612e-04  4.4263084298890661e-04  6.8414054712534532e-04  1.0268973564015584e-03  1.4557426182031101e-03  1.9160724855347311e-03  2.3044621114264720e-03  2.4801345241141945e-03  2.3118135822767284e-03  1.7542376010464512e-03  9.4423717930664462e-04  2.8439962387127188e-04  4.6361304659937413e-05  6.9833067457525150e-06  1.4832720937460761e-06  4.6363956783154289e-07  2.2919350348820285e-07  1.7572560738362638e-07  2.5979216932764367e-03  2.4788456729529602e-03  2.1450783955303276e-03  1.6701420166343581e-03  1.1636420270213874e-03  7.3311202848906490e-04  4.5349619121180990e-04  3.6073957449341253e-04  4.5704191749221197e-04  7.1185442630445771e-04  1.0593537608693361e-03  1.4070014889371273e-03  1.6637213035395942e-03  1.7745597726683828e-03  1.7367186732785977e-03  1.5871344468788157e-03  1.3766208243217966e-03  1.1504199207390548e-03  9.4087694650610840e-04  7.6686456353855016e-04  6.3503426698899095e-04  5.4234966959207256e-04  4.8057289677723777e-04  4.4163478351432470e-04  4.2146085410482486e-04  4.2044998101729841e-04  4.4060328693286768e-04  4.8088692259345175e-04  5.3314768764157561e-04  5.8090354118980371e-04  6.0272242858725659e-04  5.8031694190648867e-04  5.0866557761946945e-04  4.0275994762017941e-04  2.9601542461593617e-04  2.2997897925851942e-04  2.3952849111243501e-04  3.3874126036568375e-04  5.1433932889617575e-04  7.3734871237930569e-04  9.9237150510383954e-04  1.2927483242021255e-03  1.6498556027481396e-03  2.0247818934483130e-03  2.3225575939791968e-03  2.4395893435492171e-03  2.3249308961805467e-03  2.0111815107944327e-03  1.5938076916489174e-03  1.1779069206082746e-03  8.3487445615892746e-04  5.9196237788053515e-04  4.4553216423960412e-04  3.7924334672747559e-04  3.7731372243463723e-04  4.3175978984103176e-04  5.4506987195814091e-04  7.2955923839779951e-04  1.0058831795709748e-03  1.4097280700336387e-03  2.0316323244000253e-03  3.1404219056502996e-03  5.4950476220680328e-03  1.0848945288364401e-02  2.1586493493792040e-02  3.6378494919752730e-02  4.5449123097701216e-02  3.9291541799288794e-02  2.4801479911036046e-02  1.2963337502667333e-02  6.5639775884033524e-03  3.6424620267209240e-03  2.2590353917505039e-03  1.5105265470147975e-03  1.0670188099553802e-03  7.9910003507217798e-04  6.3950892146692577e-04  5.4477897800148513e-04  4.8475452271725295e-04  4.3981148256922765e-04  4.0057627348398007e-04  3.6757678445516992e-04  3.4943146382368566e-04  3.5955385127446800e-04  4.1212386663938788e-04  5.1781756288818827e-04  6.7920829099082675e-04  8.8592592029939656e-04  1.1106215969172572e-03  1.3078716670544433e-03  1.4195040994867704e-03  1.3903590888946285e-03  1.1942946269820911e-03  8.6233449150046541e-04  4.9377863237271653e-04  2.1891379850100904e-04  8.3435936306646368e-05  3.3604677155485390e-05  1.5389020636262577e-05  8.1700928222851057e-06  6.1908068447495335e-06  1.5306613594220525e-03  1.4853576329403220e-03  1.3485383925041900e-03  1.1324741951482984e-03  8.7614333788301661e-04  6.3227931705524005e-04  4.4690867551221890e-04  3.4915046113577323e-04  3.4998200707166577e-04  4.4259500535039786e-04  6.0210936737027285e-04  7.8881565802926378e-04  9.5897400985728179e-04  1.0798921561231444e-03  1.1398667036663730e-03  1.1468834908433306e-03  1.1192372372281622e-03  1.0757230157725055e-03  1.0298629020736041e-03  9.8802302102812757e-04  9.4992332943455980e-04  9.1084618591786280e-04  8.6515674536079583e-04  8.0995054807212104e-04  7.4702149525832583e-04  6.8205536184372587e-04  6.2160274296003590e-04  5.6958711482924451e-04  5.2513121276572179e-04  4.8276008958221555e-04  4.3517552965046611e-04  3.7787128248149799e-04  3.1380315082643395e-04  2.5567106666880862e-04  2.2404261561523938e-04  2.4146364227213861e-04  3.2431493959783809e-04  4.7499413552594047e-04  6.7885067084367721e-04  9.1154488302986171e-04  1.1548399941266800e-03  1.4041527926132323e-03  1.6541397425341585e-03  1.8768132327553397e-03  2.0203466129081965e-03  2.0344284952655387e-03  1.9022699200787357e-03  1.6545190515967472e-03  1.3547509546253083e-03  1.0690472712146708e-03  8.4243617487981344e-04  6.9338920085136233e-04  6.2115401612835620e-04  6.1598130745450200e-04  6.6685083771164232e-04  7.6595665934196995e-04  9.1071222293563506e-04  1.1040118660697791e-03  1.3538818255545008e-03  1.6751247390019578e-03  2.0971820782303254e-03  2.6828077608502120e-03  3.5558314131525649e-03  4.8932974814022761e-03  6.7286851906347370e-03  8.5581883443813008e-03  9.3561070719700139e-03  8.5370527313739820e-03  6.6111482770553490e-03  4.6247979883489616e-03  3.1695166179867358e-03  2.2509888352418724e-03  1.6890841536758186e-03  1.3456039457232190e-03  1.1435679314239049e-03  1.0353453300788993e-03  9.8353783149619702e-04  9.5530729484336995e-04  9.2317666193556815e-04  8.6866964328396784e-04  7.8588746782072203e-04  6.8208657302026745e-04  5.7401256399876798e-04  4.8151593736208624e-04  4.2142299967674640e-04  4.0366955445489758e-04  4.2973156480893002e-04  4.9242820886214844e-04  5.7661624034272463e-04  6.6102880947403796e-04  7.2176739802589881e-04  7.3787627800403260e-04  6.9875302490603642e-04  6.1095897629984282e-04  4.9895532651384974e-04  3.9358060611164518e-04  3.1345390306827250e-04  2.5656577036141045e-04  2.1256311942724869e-04  1.8055906087585024e-04  1.6841287203815786e-04  7.9771022998507317e-04  7.9036653279250643e-04  7.6265117612638576e-04  7.0844046034726819e-04  6.3388698904942684e-04  5.5447558850255953e-04  4.8574360700809121e-04  4.3801660981965094e-04  4.1594109645076406e-04  4.1982262773197879e-04  4.4673876820005513e-04  4.9154233198883625e-04  5.4873749946543558e-04  6.1507417410327765e-04  6.9119171110666353e-04  7.8078647373812609e-04  8.8744848671894097e-04  1.0107105913609517e-03  1.1430531361713409e-03  1.2691325887943079e-03  1.3679517064797454e-03  1.4180504834741831e-03  1.4045880980510449e-03  1.3253332920358232e-03  1.1919051558903525e-03  1.0251776033717908e-03  8.4781465178742764e-04  6.7826321113074052e-04  5.2838170685122606e-04  4.0418363977957325e-04  3.0813842464491733e-04  2.4175207610319476e-04  2.0758964173891488e-04  2.1009007252478787e-04  2.5475922232089516e-04  3.4580963357435561e-04  4.8285574240162723e-04  6.5791757926024767e-04  8.5497249321334914e-04  1.0541945964789240e-03  1.2391941668782678e-03  1.4004752566807474e-03  1.5306255707813201e-03  1.6169087546098269e-03  1.6414088534877241e-03  1.5909991260087397e-03  1.4692717865992201e-03  1.3003746333946941e-03  1.1213938318709923e-03  9.6915853688651519e-04  8.7022865825585869e-04  8.3769381708809177e-04  8.7257876393676871e-04  9.6664794960573080e-04  1.1054574797006878e-03  1.2718621631409703e-03  1.4498717233974456e-03  1.6279636817393597e-03  1.8009286952613403e-03  1.9701587528494929e-03  2.1430456449741640e-03  2.3317661361733485e-03  2.5494760030613257e-03  2.7975265727471334e-03  3.0407090640950829e-03  3.1933853164112865e-03  3.1583003043108029e-03  2.9025318214468284e-03  2.4950762204686569e-03  2.0579179682503434e-03  1.6886829474699989e-03  1.4280118523181879e-03  1.2776998978711995e-03  1.2259230382261168e-03  1.2557793874821723e-03  1.3433765559705887e-03  1.4550146680730044e-03  1.5485174715011375e-03  1.5811756646441344e-03  1.5232691683704244e-03  1.3706399784987346e-03  1.1474551487861038e-03  8.9598719260810026e-04  6.5980559652305704e-04  4.7049362481195158e-04  3.4301401648144614e-04  2.7770970771361835e-04  2.6433627330397130e-04  2.8573551478780013e-04  3.2168728488741241e-04  3.5391806601077404e-04  3.7152839817253350e-04  3.7465709180844298e-04  3.7439812573268068e-04  3.8814574356789107e-04  4.3100608573193631e-04  5.0600988708794734e-04  5.9869980716509741e-04  6.8266635056566858e-04  7.3599627751510686e-04  7.5317905062833527e-04  3.9762058042249311e-04  3.9948896027500750e-04  4.0711845654378009e-04  4.2560945079546809e-04  4.5965752234094018e-04  5.0890855912632952e-04  5.6537793116538009e-04  6.1473072091048188e-04  6.4105065102391435e-04  6.3317166690088540e-04  5.9010710796085952e-04  5.2361839837016921e-04  4.5675976848116748e-04  4.1843073208358350e-04  4.3600674279918632e-04  5.2914868321719756e-04  7.0599443197667659e-04  9.6031358817957315e-04  1.2685398855589918e-03  1.5885673430395863e-03  1.8642085231714456e-03  2.0379712784452768e-03  2.0699868458412727e-03  1.9539272846783007e-03  1.7186765988336937e-03  1.4140307430343638e-03  1.0912895775687370e-03  7.9068783264335594e-04  5.3850146134049330e-04  3.4950581860363167e-04  2.3013802366884478e-04  1.8058384570438502e-04  1.9609616317407867e-04  2.6814562676250964e-04  3.8543754864944275e-04  5.3458016487949970e-04  7.0051045516261105e-04  8.6717999769592906e-04  1.0190827810258075e-03  1.1437177795467889e-03  1.2338985076887530e-03  1.2879982177419920e-03  1.3075343976598755e-03  1.2942642324541220e-03  1.2497603662846761e-03  1.1779541986165409e-03  1.0881807673755570e-03  9.9597456351633055e-04  9.2129225050007900e-04  8.8590603131570784e-04  9.1062032000113020e-04  1.0106841959810914e-03  1.1889738986333193e-03  1.4304135650656349e-03  1.7021727098765766e-03  1.9612316126222554e-03  2.1668187668293314e-03  2.2921994221593066e-03  2.3303852701329593e-03  2.2921413711536930e-03  2.1990159597448564e-03  2.0753866297157984e-03  1.9418478504802119e-03  1.8105310244268293e-03  1.6831278516925027e-03  1.5534247588911583e-03  1.4145847383195988e-03  1.2674332194543530e-03  1.1239409607370088e-03  1.0040730347461264e-03  9.2961252598549443e-04  9.1975227064341374e-04  9.8927833981733303e-04  1.1466944068849773e-03  1.3896637202054859e-03  1.6976505043680057e-03  2.0248978926341358e-03  2.3004256048462612e-03  2.4431297315652598e-03  2.3930185670132196e-03  2.1432593269127423e-03  1.7482267317836281e-03  1.2982762630149899e-03  8.7997206401807082e-04  5.4895982058124110e-04  3.2572377251861612e-04  2.0523148154321641e-04  1.6735909671865593e-04  1.8305953358682775e-04  2.1949266766288541e-04  2.4812915819372904e-04  2.5461843305988404e-04  2.4492885963265591e-04  2.4348874429557627e-04  2.8380673325397441e-04  3.9547517248931868e-04  5.9133066882464036e-04  8.5658023837691761e-04  1.1419294192505610e-03  1.3683637757766578e-03  1.4555612393853084e-03  2.7247961930096002e-04  2.6366814586433786e-04  2.5370326872736543e-04  2.7606436630270683e-04  3.5503687708968472e-04  4.9290438096811823e-04  6.6919387167984701e-04  8.4606748927975510e-04  9.7859450102323543e-04  1.0283946035691311e-03  9.7713983559023733e-04  8.3596611543778352e-04  6.4655908405791048e-04  4.7082617073444593e-04  3.7255393074505776e-04  4.0105160511972547e-04  5.8322321529569014e-04  9.2029991821870492e-04  1.3824778497025395e-03  1.9025936734419619e-03  2.3791461067210638e-03  2.69954703254