<?xml version="1.0"?>
<VTKFile type="UnstructuredGrid"  version="0.1"  >
<UnstructuredGrid>
<Piece  NumberOfPoints="20201" NumberOfCells="40000">
<Points>
<DataArray  type="Float64"  NumberOfComponents="3"  format="ascii">0 0 0  2 0 0  4 0 0  6 0 0  8 0 0  10 0 0  12 0 0  14 0 0  16 0 0  18 0 0  20 0 0  22 0 0  24 0 0  26 0 0  28 0 0  30 0 0  32 0 0  34 0 0  36 0 0  38 0 0  40 0 0  42 0 0  44 0 0  46 0 0  48 0 0  50 0 0  52 0 0  54 0 0  56 0 0  58 0 0  60 0 0  62 0 0  64 0 0  66 0 0  68 0 0  70 0 0  72 0 0  74 0 0  76 0 0  78 0 0  80 0 0  82 0 0  84 0 0  86 0 0  88 0 0  90 0 0  92 0 0  94 0 0  96 0 0  98 0 0  100 0 0  102 0 0  104 0 0  106 0 0  108 0 0  110 0 0  112 0 0  114 0 0  116 0 0  118 0 0  120 0 0  122 0 0  124 0 0  126 0 0  128 0 0  130 0 0  132 0 0  134 0 0  136 0 0  138 0 0  140 0 0  142 0 0  144 0 0  146 0 0  148 0 0  150 0 0  152 0 0  154 0 0  156 0 0  158 0 0  160 0 0  162 0 0  164 0 0  166 0 0  168 0 0  170 0 0  172 0 0  174 0 0  176 0 0  178 0 0  180 0 0  182 0 0  184 0 0  186 0 0  188 0 0  190 0 0  192 0 0  194 0 0  196 0 0  198 0 0  200 0 0  0 2 0  2 2 0  4 2 0  6 2 0  8 2 0  10 2 0  12 2 0  14 2 0  16 2 0  18 2 0  20 2 0  22 2 0  24 2 0  26 2 0  28 2 0  30 2 0  32 2 0  34 2 0  36 2 0  38 2 0  40 2 0  42 2 0  44 2 0  46 2 0  48 2 0  50 2 0  52 2 0  54 2 0  56 2 0  58 2 0  60 2 0  62 2 0  64 2 0  66 2 0  68 2 0  70 2 0  72 2 0  74 2 0  76 2 0  78 2 0  80 2 0  82 2 0  84 2 0  86 2 0  88 2 0  90 2 0  92 2 0  94 2 0  96 2 0  98 2 0  100 2 0  102 2 0  104 2 0  106 2 0  108 2 0  110 2 0  112 2 0  114 2 0  116 2 0  118 2 0  120 2 0  122 2 0  124 2 0  126 2 0  128 2 0  130 2 0  132 2 0  134 2 0  136 2 0  138 2 0  140 2 0  142 2 0  144 2 0  146 2 0  148 2 0  150 2 0  152 2 0  154 2 0  156 2 0  158 2 0  160 2 0  162 2 0  164 2 0  166 2 0  168 2 0  170 2 0  172 2 0  174 2 0  176 2 0  178 2 0  180 2 0  182 2 0  184 2 0  186 2 0  188 2 0  190 2 0  192 2 0  194 2 0  196 2 0  198 2 0  200 2 0  0 4 0  2 4 0  4 4 0  6 4 0  8 4 0  10 4 0  12 4 0  14 4 0  16 4 0  18 4 0  20 4 0  22 4 0  24 4 0  26 4 0  28 4 0  30 4 0  32 4 0  34 4 0  36 4 0  38 4 0  40 4 0  42 4 0  44 4 0  46 4 0  48 4 0  50 4 0  52 4 0  54 4 0  56 4 0  58 4 0  60 4 0  62 4 0  64 4 0  66 4 0  68 4 0  70 4 0  72 4 0  74 4 0  76 4 0  78 4 0  80 4 0  82 4 0  84 4 0  86 4 0  88 4 0  90 4 0  92 4 0  94 4 0  96 4 0  98 4 0  100 4 0  102 4 0  104 4 0  106 4 0  108 4 0  110 4 0  112 4 0  114 4 0  116 4 0  118 4 0  120 4 0  122 4 0  124 4 0  126 4 0  128 4 0  130 4 0  132 4 0  134 4 0  136 4 0  138 4 0  140 4 0  142 4 0  144 4 0  146 4 0  148 4 0  150 4 0  152 4 0  154 4 0  156 4 0  158 4 0  160 4 0  162 4 0  164 4 0  166 4 0  168 4 0  170 4 0  172 4 0  174 4 0  176 4 0  178 4 0  180 4 0  182 4 0  184 4 0  186 4 0  188 4 0  190 4 0  192 4 0  194 4 0  196 4 0  198 4 0  200 4 0  0 6 0  2 6 0  4 6 0  6 6 0  8 6 0  10 6 0  12 6 0  14 6 0  16 6 0  18 6 0  20 6 0  22 6 0  24 6 0  26 6 0  28 6 0  30 6 0  32 6 0  34 6 0  36 6 0  38 6 0  40 6 0  42 6 0  44 6 0  46 6 0  48 6 0  50 6 0  52 6 0  54 6 0  56 6 0  58 6 0  60 6 0  62 6 0  64 6 0  66 6 0  68 6 0  70 6 0  72 6 0  74 6 0  76 6 0  78 6 0  80 6 0  82 6 0  84 6 0  86 6 0  88 6 0  90 6 0  92 6 0  94 6 0  96 6 0  98 6 0  100 6 0  102 6 0  104 6 0  106 6 0  108 6 0  110 6 0  112 6 0  114 6 0  116 6 0  118 6 0  120 6 0  122 6 0  124 6 0  126 6 0  128 6 0  130 6 0  132 6 0  134 6 0  136 6 0  138 6 0  140 6 0  142 6 0  144 6 0  146 6 0  148 6 0  150 6 0  152 6 0  154 6 0  156 6 0  158 6 0  160 6 0  162 6 0  164 6 0  166 6 0  168 6 0  170 6 0  172 6 0  174 6 0  176 6 0  178 6 0  180 6 0  182 6 0  184 6 0  186 6 0  188 6 0  190 6 0  192 6 0  194 6 0  196 6 0  198 6 0  200 6 0  0 8 0  2 8 0  4 8 0  6 8 0  8 8 0  10 8 0  12 8 0  14 8 0  16 8 0  18 8 0  20 8 0  22 8 0  24 8 0  26 8 0  28 8 0  30 8 0  32 8 0  34 8 0  36 8 0  38 8 0  40 8 0  42 8 0  44 8 0  46 8 0  48 8 0  50 8 0  52 8 0  54 8 0  56 8 0  58 8 0  60 8 0  62 8 0  64 8 0  66 8 0  68 8 0  70 8 0  72 8 0  74 8 0  76 8 0  78 8 0  80 8 0  82 8 0  84 8 0  86 8 0  88 8 0  90 8 0  92 8 0  94 8 0  96 8 0  98 8 0  100 8 0  102 8 0  104 8 0  106 8 0  108 8 0  110 8 0  112 8 0  114 8 0  116 8 0  118 8 0  120 8 0  122 8 0  124 8 0  126 8 0  128 8 0  130 8 0  132 8 0  134 8 0  136 8 0  138 8 0  140 8 0  142 8 0  144 8 0  146 8 0  148 8 0  150 8 0  152 8 0  154 8 0  156 8 0  158 8 0  160 8 0  162 8 0  164 8 0  166 8 0  168 8 0  170 8 0  172 8 0  174 8 0  176 8 0  178 8 0  180 8 0  182 8 0  184 8 0  186 8 0  188 8 0  190 8 0  192 8 0  194 8 0  196 8 0  198 8 0  200 8 0  0 10 0  2 10 0  4 10 0  6 10 0  8 10 0  10 10 0  12 10 0  14 10 0  16 10 0  18 10 0  20 10 0  22 10 0  24 10 0  26 10 0  28 10 0  30 10 0  32 10 0  34 10 0  36 10 0  38 10 0  40 10 0  42 10 0  44 10 0  46 10 0  48 10 0  50 10 0  52 10 0  54 10 0  56 10 0  58 10 0  60 10 0  62 10 0  64 10 0  66 10 0  68 10 0  70 10 0  72 10 0  74 10 0  76 10 0  78 10 0  80 10 0  82 10 0  84 10 0  86 10 0  88 10 0  90 10 0  92 10 0  94 10 0  96 10 0  98 10 0  100 10 0  102 10 0  104 10 0  106 10 0  108 10 0  110 10 0  112 10 0  114 10 0  116 10 0  118 10 0  120 10 0  122 10 0  124 10 0  126 10 0  128 10 0  130 10 0  132 10 0  134 10 0  136 10 0  138 10 0  140 10 0  142 10 0  144 10 0  146 10 0  148 10 0  150 10 0  152 10 0  154 10 0  156 10 0  158 10 0  160 10 0  162 10 0  164 10 0  166 10 0  168 10 0  170 10 0  172 10 0  174 10 0  176 10 0  178 10 0  180 10 0  182 10 0  184 10 0  186 10 0  188 10 0  190 10 0  192 10 0  194 10 0  196 10 0  198 10 0  200 10 0  0 12 0  2 12 0  4 12 0  6 12 0  8 12 0  10 12 0  12 12 0  14 12 0  16 12 0  18 12 0  20 12 0  22 12 0  24 12 0  26 12 0  28 12 0  30 12 0  32 12 0  34 12 0  36 12 0  38 12 0  40 12 0  42 12 0  44 12 0  46 12 0  48 12 0  50 12 0  52 12 0  54 12 0  56 12 0  58 12 0  60 12 0  62 12 0  64 12 0  66 12 0  68 12 0  70 12 0  72 12 0  74 12 0  76 12 0  78 12 0  80 12 0  82 12 0  84 12 0  86 12 0  88 12 0  90 12 0  92 12 0  94 12 0  96 12 0  98 12 0  100 12 0  102 12 0  104 12 0  106 12 0  108 12 0  110 12 0  112 12 0  114 12 0  116 12 0  118 12 0  120 12 0  122 12 0  124 12 0  126 12 0  128 12 0  130 12 0  132 12 0  134 12 0  136 12 0  138 12 0  140 12 0  142 12 0  144 12 0  146 12 0  148 12 0  150 12 0  152 12 0  154 12 0  156 12 0  158 12 0  160 12 0  162 12 0  164 12 0  166 12 0  168 12 0  170 12 0  172 12 0  174 12 0  176 12 0  178 12 0  180 12 0  182 12 0  184 12 0  186 12 0  188 12 0  190 12 0  192 12 0  194 12 0  196 12 0  198 12 0  200 12 0  0 14 0  2 14 0  4 14 0  6 14 0  8 14 0  10 14 0  12 14 0  14 14 0  16 14 0  18 14 0  20 14 0  22 14 0  24 14 0  26 14 0  28 14 0  30 14 0  32 14 0  34 14 0  36 14 0  38 14 0  40 14 0  42 14 0  44 14 0  46 14 0  48 14 0  50 14 0  52 14 0  54 14 0  56 14 0  58 14 0  60 14 0  62 14 0  64 14 0  66 14 0  68 14 0  70 14 0  72 14 0  74 14 0  76 14 0  78 14 0  80 14 0  82 14 0  84 14 0  86 14 0  88 14 0  90 14 0  92 14 0  94 14 0  96 14 0  98 14 0  100 14 0  102 14 0  104 14 0  106 14 0  108 14 0  110 14 0  112 14 0  114 14 0  116 14 0  118 14 0  120 14 0  122 14 0  124 14 0  126 14 0  128 14 0  130 14 0  132 14 0  134 14 0  136 14 0  138 14 0  140 14 0  142 14 0  144 14 0  146 14 0  148 14 0  150 14 0  152 14 0  154 14 0  156 14 0  158 14 0  160 14 0  162 14 0  164 14 0  166 14 0  168 14 0  170 14 0  172 14 0  174 14 0  176 14 0  178 14 0  180 14 0  182 14 0  184 14 0  186 14 0  188 14 0  190 14 0  192 14 0  194 14 0  196 14 0  198 14 0  200 14 0  0 16 0  2 16 0  4 16 0  6 16 0  8 16 0  10 16 0  12 16 0  14 16 0  16 16 0  18 16 0  20 16 0  22 16 0  24 16 0  26 16 0  28 16 0  30 16 0  32 16 0  34 16 0  36 16 0  38 16 0  40 16 0  42 16 0  44 16 0  46 16 0  48 16 0  50 16 0  52 16 0  54 16 0  56 16 0  58 16 0  60 16 0  62 16 0  64 16 0  66 16 0  68 16 0  70 16 0  72 16 0  74 16 0  76 16 0  78 16 0  80 16 0  82 16 0  84 16 0  86 16 0  88 16 0  90 16 0  92 16 0  94 16 0  96 16 0  98 16 0  100 16 0  102 16 0  104 16 0  106 16 0  108 16 0  110 16 0  112 16 0  114 16 0  116 16 0  118 16 0  120 16 0  122 16 0  124 16 0  126 16 0  128 16 0  130 16 0  132 16 0  134 16 0  136 16 0  138 16 0  140 16 0  142 16 0  144 16 0  146 16 0  148 16 0  150 16 0  152 16 0  154 16 0  156 16 0  158 16 0  160 16 0  162 16 0  164 16 0  166 16 0  168 16 0  170 16 0  172 16 0  174 16 0  176 16 0  178 16 0  180 16 0  182 16 0  184 16 0  186 16 0  188 16 0  190 16 0  192 16 0  194 16 0  196 16 0  198 16 0  200 16 0  0 18 0  2 18 0  4 18 0  6 18 0  8 18 0  10 18 0  12 18 0  14 18 0  16 18 0  18 18 0  20 18 0  22 18 0  24 18 0  26 18 0  28 18 0  30 18 0  32 18 0  34 18 0  36 18 0  38 18 0  40 18 0  42 18 0  44 18 0  46 18 0  48 18 0  50 18 0  52 18 0  54 18 0  56 18 0  58 18 0  60 18 0  62 18 0  64 18 0  66 18 0  68 18 0  70 18 0  72 18 0  74 18 0  76 18 0  78 18 0  80 18 0  82 18 0  84 18 0  86 18 0  88 18 0  90 18 0  92 18 0  94 18 0  96 18 0  98 18 0  100 18 0  102 18 0  104 18 0  106 18 0  108 18 0  110 18 0  112 18 0  114 18 0  116 18 0  118 18 0  120 18 0  122 18 0  124 18 0  126 18 0  128 18 0  130 18 0  132 18 0  134 18 0  136 18 0  138 18 0  140 18 0  142 18 0  144 18 0  146 18 0  148 18 0  150 18 0  152 18 0  154 18 0  156 18 0  158 18 0  160 18 0  162 18 0  164 18 0  166 18 0  168 18 0  170 18 0  172 18 0  174 18 0  176 18 0  178 18 0  180 18 0  182 18 0  184 18 0  186 18 0  188 18 0  190 18 0  192 18 0  194 18 0  196 18 0  198 18 0  200 18 0  0 20 0  2 20 0  4 20 0  6 20 0  8 20 0  10 20 0  12 20 0  14 20 0  16 20 0  18 20 0  20 20 0  22 20 0  24 20 0  26 20 0  28 20 0  30 20 0  32 20 0  34 20 0  36 20 0  38 20 0  40 20 0  42 20 0  44 20 0  46 20 0  48 20 0  50 20 0  52 20 0  54 20 0  56 20 0  58 20 0  60 20 0  62 20 0  64 20 0  66 20 0  68 20 0  70 20 0  72 20 0  74 20 0  76 20 0  78 20 0  80 20 0  82 20 0  84 20 0  86 20 0  88 20 0  90 20 0  92 20 0  94 20 0  96 20 0  98 20 0  100 20 0  102 20 0  104 20 0  106 20 0  108 20 0  110 20 0  112 20 0  114 20 0  116 20 0  118 20 0  120 20 0  122 20 0  124 20 0  126 20 0  128 20 0  130 20 0  132 20 0  134 20 0  136 20 0  138 20 0  140 20 0  142 20 0  144 20 0  146 20 0  148 20 0  150 20 0  152 20 0  154 20 0  156 20 0
[...]
<PointData  Scalars="f_271-4"> 
<DataArray  type="Float64"  Name="f_271-4"  format="ascii">6.2639291400618003e-10  6.0389548307770546e-10  5.4226294322098404e-10  4.5712578050899372e-10  3.6893510327039954e-10  2.9710156151737072e-10  2.5524616523454939e-10  2.4862488887927877e-10  2.7381262365205979e-10  3.2026672083971208e-10  3.7329771134021817e-10  4.1784465213327291e-10  4.4215830594139818e-10  4.4032981698282154e-10  4.1291287576496320e-10  3.6564001167745738e-10  3.0698529535816918e-10  2.4561998905050081e-10  1.8856117261136286e-10  1.4031167351715139e-10  1.0287366215839040e-10  7.6327860728084002e-11  5.9647854052452994e-11  5.1463118860057733e-11  5.0553816449013529e-11  5.5963753548978881e-11  6.6757627077770866e-11  8.1592940522301320e-11  9.8371696077120480e-11  1.1423211861312267e-10  1.2601457342965835e-10  1.3111640609350399e-10  1.2842568973528442e-10  1.1891794355951342e-10  1.0560346706270906e-10  9.2804831443381638e-11  8.5072372475317079e-11  8.6203910295038747e-11  9.8698341306194343e-11  1.2361165773513518e-10  1.6046865609592464e-10  2.0691586627198784e-10  2.5823118459272191e-10  3.0728678093554195e-10  3.4559050840370193e-10  3.6543484186680659e-10  3.6235815551852983e-10  3.3672721383979087e-10  2.9362669254414694e-10  2.4113919989889202e-10  1.8789798536884623e-10  1.4096745283796114e-10  1.0429222273881456e-10  7.5410633261423477e-11  3.9757937198564782e-11  -3.8887814827803477e-12  3.3020077892703101e-10  -5.8365958617520410e-09  9.4920111323322506e-08  -1.4566458624730072e-06  2.1336688567029116e-05  -3.0603953446163627e-04  1.9610958289745453e-01  7.8202032179892711e-01  9.6626188083948183e-01  9.9395511562001670e-01  9.9870858244281790e-01  9.9945354065711045e-01  9.9901257968711477e-01  9.9653159366488508e-01  9.8573848265348096e-01  9.3539296434547181e-01  6.9071021665809984e-01  2.0287074910977715e-01  2.9989457811494574e-02  4.0458301315094806e-03  5.4869092070106954e-04  7.5186808753216369e-05  1.0399306573642281e-05  1.4492754614443970e-06  2.0324150313047990e-07  2.8687008002274184e-08  4.1252666958032714e-09  6.8044652613430160e-10  2.3235048256441241e-10  2.2086733783714234e-10  2.7796991536949714e-10  3.4009428289096869e-10  3.7879459131859390e-10  3.5877625644181178e-10  2.3302609408489510e-10  5.4094606910337061e-11  2.4608969629988877e-12  3.6958884459304972e-14  3.8583952900932265e-16  3.4678976204184767e-17  -3.4768922402688011e-19  3.4969570290534723e-20  1.6026782086831291e-20  -1.4457555814739784e-20  -1.6742825948626595e-20  6.0686913246005277e-10  5.8523180703441807e-10  5.2592816299361682e-10  4.4392907113112904e-10  3.5885213556227111e-10  2.8936270245549873e-10  2.4861565124550743e-10  2.4176082759907769e-10  2.6560997904672691e-10  3.1011358642894972e-10  3.6119836180730551e-10  4.0438672757733217e-10  4.2833777688043264e-10  4.2729053774319730e-10  4.0168439080886189e-10  3.5694876606504340e-10  3.0117498710992002e-10  2.4267127594555067e-10  1.8817334141978099e-10  1.4200575508281579e-10  1.0608832011983437e-10  8.0493483271597308e-11  6.4234356207237580e-11  5.6003360019616066e-11  5.4649374680938680e-11  5.9283451740184033e-11  6.9040176878648837e-11  8.2661712193423799e-11  9.8161854842924507e-11  1.1282055560156660e-10  1.2363573792625143e-10  1.2814722186270382e-10  1.2533236727727104e-10  1.1617341764730087e-10  1.0359820605738273e-10  9.1777419967323899e-11  8.5076864891543062e-11  8.7114215889420351e-11  1.0023674022273649e-10  1.2538764298708004e-10  1.6202511606396671e-10  2.0779114464602372e-10  2.5804402055078683e-10  3.0583295169501961e-10  3.4291803605194851e-10  3.6185910152063073e-10  3.5839880612339071e-10  3.3298506881392755e-10  2.9064778927143380e-10  2.3932009897704485e-10  1.8748490221512130e-10  1.4227541810793050e-10  1.0863991259251283e-10  8.7220133267392185e-11  6.1414022349565732e-11  -9.9721839743927544e-12  2.6618955686156637e-10  -2.0301368014675297e-09  -4.3722543597868736e-10  5.1883582911457652e-07  -1.6962057918381728e-05  5.4099710769627701e-04  2.0073659256235973e-01  7.7667124603869364e-01  9.6366020546462239e-01  9.9304507350585680e-01  9.9831769208996091e-01  9.9916059017779268e-01  9.9856037138436804e-01  9.9542458139284384e-01  9.8227537767084927e-01  9.2214445573502357e-01  6.4386708051706820e-01  1.7558380717133265e-01  2.6236409670859391e-02  3.6344511400976318e-03  5.0126697964163473e-04  6.9519896224712983e-05  9.7026904700577565e-06  1.3617799234217298e-06  1.9206776704721666e-07  2.7242930988555446e-08  3.9376805596216617e-09  6.5528409362036084e-10  2.2625170742603136e-10  2.1451147961229953e-10  2.6864193989532843e-10  3.2790478393466917e-10  3.6551786116349320e-10  3.4934032098939087e-10  2.3723342146167260e-10  6.4268405382376741e-11  3.6828721479916508e-12  7.0430967079298777e-14  1.8487250698076825e-15  1.1045256999934380e-16  -2.9473103164280229e-18  -8.5364135300412874e-20  -4.1255040384755562e-19  -2.6172894252081877e-19  -2.2658164717981517e-19  5.5201239653562706e-10  5.3277919951475626e-10  4.7999619751033538e-10  4.0681567886960980e-10  3.3054689932527162e-10  2.6777416232326607e-10  2.3032782053382401e-10  2.2302206247094924e-10  2.4328648792845465e-10  2.8241343447592903e-10  3.2803377402636956e-10  3.6730732490583600e-10  3.9006670813131292e-10  3.9101470861453588e-10  3.7032637087296259e-10  3.3262857493166623e-10  2.8496518271274490e-10  2.3462497369816836e-10  1.8752791721147734e-10  1.4745432655504486e-10  1.1604171839291319e-10  9.3292566343521740e-11  7.8298506416988281e-11  6.9916792137489863e-11  6.7199002607232800e-11  6.9472332785839362e-11  7.6104868330387847e-11  8.6114861107374062e-11  9.7861741947962994e-11  1.0904316580237180e-10  1.1710496023446076e-10  1.1997898098364983e-10  1.1687500458033865e-10  1.0877033657121831e-10  9.8336905613612605e-11  8.9298208035990115e-11  8.5487498972604932e-11  9.0009580186923571e-11  1.0478600601118254e-10  1.3044953489828041e-10  1.6628317315551537e-10  2.0993359706272849e-10  2.5700782651434871e-10  3.0107890360088127e-10  3.3464122363949678e-10  3.5102454421052225e-10  3.4655268532822100e-10  3.2189627964186183e-10  2.8191675929400242e-10  2.3410894470063391e-10  1.8652102529566789e-10  1.4654582297192518e-10  1.2284242911854476e-10  1.3348116975390633e-10  1.9662404249525145e-10  2.2015695671967130e-10  -1.7341749859376630e-09  3.0134804766093895e-08  -5.0690929932744232e-07  8.5210814655635010e-06  -1.4762004783696643e-04  3.6725169897553734e-03  1.9482249880215627e-01  7.3740634097725200e-01  9.5051310522180432e-01  9.8868474903739201e-01  9.9635968498342409e-01  9.9765345366066904e-01  9.9635498315714754e-01  9.9044991307499231e-01  9.6758673300166542e-01  8.6788717575177476e-01  4.9206114876918122e-01  1.1299729615090455e-01  1.7858349117918879e-02  2.6461450961730434e-03  3.8297563711924362e-04  5.5009195727092684e-05  7.8846646374311250e-06  1.1300697508695803e-06  1.6213152243030875e-07  2.3338292362885879e-08  3.4274264563405600e-09  5.8706903827886429e-10  2.1000488034488561e-10  1.9735007865026392e-10  2.4314942554668574e-10  2.9437599009348252e-10  3.2853133706513235e-10  3.2081175096754912e-10  2.4099933272813581e-10  9.4076784835400285e-11  9.9656264481306342e-12  3.1629515950378992e-13  1.8546936707507870e-14  4.9380143867747469e-16  5.5176217650204060e-17  1.3585106496909193e-17  1.1401230045369464e-17  9.9468011778483317e-18  9.4318826725296531e-18  4.7187912320652649e-10  4.5612357466646721e-10  4.1280565967094352e-10  3.5252234986699578e-10  2.8930936097471138e-10  2.3675003439120550e-10  2.0469656714093645e-10  1.9736127093211160e-10  2.1293274368370241e-10  2.4453038056828282e-10  2.8219037256080480e-10  3.1545677260433747e-10  3.3595348744690275e-10  3.3920548433530827e-10  3.2517460460366692e-10  2.9746744343529869e-10  2.6168768726063119e-10  2.2364180745493086e-10  1.8798437299912321e-10  1.5756756064082511e-10  1.3345720641897013e-10  1.1540522579793897e-10  1.0251387458625258e-10  9.3842691665614317e-11  8.8770394446127316e-11  8.7027009460139024e-11  8.8439561631148093e-11  9.2549536179555110e-11  9.8318707125223085e-11  1.0411382026901351e-10  1.0804921902818282e-10  1.0860211679227475e-10  1.0526342496634404e-10  9.8928553729802067e-11  9.1819974797197187e-11  8.6944155004074653e-11  8.7312903336478173e-11  9.5262170189310586e-11  1.1209532167356535e-10  1.3801587832012744e-10  1.7209296487905544e-10  2.1203804191382982e-10  2.5389267254508119e-10  2.9207275318567644e-10  3.2021670457347322e-10  3.3282865393983645e-10  3.2709827482575136e-10  3.0400503581697106e-10  2.6812405871293239e-10  2.2625975264600401e-10  1.8578488660367087e-10  1.5459370846998890e-10  1.4877166809299477e-10  2.3288523758437200e-10  6.6208636960148816e-10  1.9473315094312129e-09  1.4511879164045617e-09  4.6236689870457348e-08  -6.7928656770291535e-07  1.1455307599189387e-05  -1.6621343453004402e-04  8.7490873305089700e-03  1.4251809419327291e-01  5.9410931863662020e-01  9.0279968567610136e-01  9.7260585639559183e-01  9.8856473949819945e-01  9.9139550627804340e-01  9.8779945810679171e-01  9.7279846034984963e-01  9.2014192032399933e-01  7.0889507596274048e-01  2.7007272176161551e-01  5.5510227901550954e-02  9.7558441824255222e-03  1.5827047230161228e-03  2.4618365948926579e-04  3.7363299987340132e-05  5.5897703224270248e-06  8.2901208904464461e-07  1.2233095242728227e-07  1.8051889040645190e-08  2.7287592511764582e-09  4.9458574094798527e-10  1.8892064025742128e-10  1.7432308815926783e-10  2.0796245868510987e-10  2.4746758451254605e-10  2.7568444761874931e-10  2.7556350983828945e-10  2.2892520638218181e-10  1.2884996823532255e-10  3.0685461302068423e-11  2.3965503138248026e-12  1.5193209811942112e-13  1.3771863809762305e-14  1.4790055465187505e-15  2.7193208709847272e-17  -1.9679933723655831e-16  -2.2376661602858297e-16  -2.2410481508756386e-16  3.8003734826901993e-10  3.6821490187542765e-10  3.3566041436960699e-10  2.9021740088265326e-10  2.4234215107309508e-10  2.0224905631731046e-10  1.7744822917924665e-10  1.7126241529563217e-10  1.8248784217751525e-10  2.0609009409364850e-10  2.3470091509945220e-10  2.6057473273930671e-10  2.7752256428097609e-10  2.8227381218817242e-10  2.7486644417471682e-10  2.5802757748166306e-10  2.3589138767056369e-10  2.1259338383675190e-10  1.9121011442179662e-10  1.7328156501249021e-10  1.5891093730648835e-10  1.4727100199219482e-10  1.3726910257901231e-10  1.2812002340216246e-10  1.1964003059400782e-10  1.1219423113353175e-10  1.0636708285809553e-10  1.0253110643289602e-10  1.0052208820071906e-10  9.9580647373628693e-11  9.8608533589821325e-11  9.6651287227777788e-11  9.3407888887858368e-11  8.9535909005886300e-11  8.6597550625977521e-11  8.6655674874184400e-11  9.1699062816071401e-11  1.0314926141156547e-10  1.2161626154956357e-10  1.4686954178834205e-10  1.7782586479313795e-10  2.1239006354099524e-10  2.4723671861241407e-10  2.7788298075879988e-10  2.9939281178833935e-10  3.0768858381685622e-10  3.0097091397065235e-10  2.8054256404272750e-10  2.5058797592657612e-10  2.1704348167971268e-10  1.8642600262454515e-10  1.6722060651916165e-10  1.8576001143128967e-10  3.8272715043609810e-10  1.5445641360387395e-09  7.6605105041022246e-09  3.6713638522840110e-08  1.3901669831064337e-07  1.2890188348949983e-06  5.9846085371050382e-06  4.5247606245154003e-04  9.6232701958255777e-03  7.0090911875482817e-02  3.1853082009442180e-01  7.2911755999878369e-01  9.0910528335795560e-01  9.5472931076536460e-01  9.6328988588851783e-01  9.5140700978019199e-01  9.0409584428705303e-01  7.4481005985469373e-01  3.7976930097807776e-01  1.0380351327237763e-01  2.2642025806352852e-02  4.4051869499212651e-03  7.9307054146239672e-04  1.3449955266049698e-04  2.1900767099588007e-05  3.4674964410616911e-06  5.3856879909963450e-07  8.2609220348087329e-08  1.2633627329432780e-08  2.0018025390877538e-09  4.0068412390285894e-10  1.6948448356527378e-10  1.5148835132763869e-10  1.7107344687111385e-10  1.9716937204197228e-10  2.1761027884418231e-10  2.2134890655096241e-10  1.9808230128182220e-10  1.4279659235676081e-10  6.7612955613444179e-11  1.5629777087193295e-11  1.9235309310143217e-12  2.1597101491056555e-13  3.2228633297102453e-14  9.7767846302272158e-15  6.1969756320130010e-15  5.2190601308411821e-15  4.9616091039114184e-15  2.9006885122176862e-10  2.8203987388687339e-10  2.5994970863802088e-10  2.2918192314135171e-10  1.9692404138199886e-10  1.7019244190071923e-10  1.5410354879884587e-10  1.5082772870872930e-10  1.5937636069132823e-10  1.7615426169329373e-10  1.9608519362004761e-10  2.1402778061800783e-10  2.2611472628761327e-10  2.3062892109138249e-10  2.2815460420584873e-10  2.2099940021158368e-10  2.1215210010921062e-10  2.0418241537830169e-10  1.9845279746014993e-10  1.9485275105478138e-10  1.9207147117340422e-10  1.8825636675488900e-10  1.8179498768460522e-10  1.7193263905007041e-10  1.5901515079032521e-10  1.4430477725239968e-10  1.2948879084368845e-10  1.1610638962682592e-10  1.0512110049452377e-10  9.6780007954377324e-11  9.0776609587161889e-11  8.6618839207871343e-11  8.4032074289985213e-11  8.3221036683937037e-11  8.4881183883212108e-11  8.9968280954992971e-11  9.9350492638704277e-11  1.1351344713822681e-10  1.3242677992219860e-10  1.5554264181801109e-10  1.8178842927350579e-10  2.0944962771691954e-10  2.3602003325354941e-10  2.5827651396561214e-10  2.7281625569936984e-10  2.7702475686002767e-10  2.7010068938309253e-10  2.5362029915025250e-10  2.3131532609069269e-10  2.0818754611959550e-10  1.8978739735789537e-10  1.8487665615692399e-10  2.2920005625084030e-10  5.4204039595602374e-10  2.5359886463298968e-09  1.5421927195782567e-08  1.0013013220280287e-07  7.0732481055009865e-07  5.6261984043898767e-06  6.3467326270276009e-05  7.3291285672919123e-04  5.2526384876896799e-03  2.6411419046287046e-02  1.0645417528722738e-01  3.3837792299361069e-01  6.3780427920786820e-01  7.8522447909954529e-01  8.1730917318704155e-01  7.7310064682904800e-01  6.1925357000862902e-01  3.3814476665747661e-01  1.1723522123049350e-01  3.2535651414810900e-02  7.8466316410994857e-03  1.7045608390739938e-03  3.3977081499637533e-04  6.3284938026581932e-05  1.1163794323345380e-05  1.8906303054105258e-06  3.1071973757271695e-07  5.0047021467657533e-08  8.0377881863949196e-09  1.3753550331562243e-09  3.2423583004476308e-10  1.5701829643945918e-10  1.3392416999631675e-10  1.3934597935509181e-10  1.5228415310432715e-10  1.6442034983808921e-10  1.6854904154411813e-10  1.5853781440173091e-10  1.3155481466890126e-10  9.0608894440722405e-11  4.6759769701556077e-11  1.6798740437051312e-11  4.9219323230571078e-12  1.5590909294681682e-12  5.8508981445799525e-13  2.6704674820481637e-13  1.5837341030349846e-13  1.3160910536047496e-13  2.1259346980406662e-10  2.0777653032615443e-10  1.9464889913085789e-10  1.7675588226382678e-10  1.5875718342303532e-10  1.4504787362489751e-10  1.3857303833323289e-10  1.4016921130431787e-10  1.4855218386301340e-10  1.6088155024017496e-10  1.7370790813731632e-10  1.8403457206695558e-10  1.9019259343110987e-10  1.9226220283351215e-10  1.9190266691521016e-10  1.9164974832267865e-10  1.9392386323613124e-10  2.0008347059547098e-10  2.0983343081387698e-10  2.2118355917854781e-10  2.3098501376242515e-10  2.3588356096525335e-10  2.3336922385984258e-10  2.2254708747458032e-10  2.0435823249017252e-10  1.8121124042371136e-10  1.5622429184989259e-10  1.3239952595673882e-10  1.1201217471701198e-10  9.6352821160233869e-11  8.5805534511746678e-11  8.0141443390960835e-11  7.8871621939352191e-11  8.1523048750097663e-11  8.7760189976908383e-11  9.7353119604776771e-11  1.1006199215618732e-10  1.2553240619496865e-10  1.4325763454204928e-10  1.6258372606720234e-10  1.8267725482017335e-10  2.0240876224480291e-10  2.2022490175118148e-10  2.3419082615832469e-10  2.4235842753068577e-10  2.4342910910461118e-10  2.3744976214071443e-10  2.2618175803388179e-10  2.1290585367363092e-10  2.0174707781210694e-10  1.9725511224575750e-10  2.0771359257767841e-10  2.7293479942294432e-10  6.5339921271531697e-10  3.1144262027428895e-09  1.9865053329540547e-08  1.3884114745091108e-07  1.0245058639999240e-06  8.1328296322104981e-06  6.3800936173145616e-05  4.0173589095737560e-04  1.9840576547339645e-03  8.1176838022317729e-03  2.8458281040721151e-02  8.2828500193096621e-02  1.9012533183378821e-01  3.0255191049974450e-01  3.4317797035543884e-01  2.9019187563751409e-01  1.7868989768228241e-01  7.9442998133404108e-02  2.8634296426709456e-02  8.7853515034429681e-03  2.3737602427099558e-03  5.7480297933808981e-04  1.2707978429165229e-04  2.6009108180960620e-05  4.9962997223094351e-06  9.1161675438616792e-07  1.5986741450882252e-07  2.7321557122924011e-08  4.6994320007932273e-09  9.1520884623996453e-10  2.7502135969111531e-10  1.5404660168360734e-10  1.2431699992410353e-10  1.1678147359468935e-10  1.1824168229127164e-10  1.2288380169677539e-10  1.2555477325658344e-10  1.2200266827827595e-10  1.1019964799969364e-10  9.1248494911704129e-11  6.8971203067796368e-11  4.8105848971131471e-11  3.2148903806023426e-11  2.1401640085828701e-11  1.4684137569653531e-11  1.0939202278064849e-11  9.1429502656947186e-12  8.6158745143121713e-12  1.5360303772251800e-10  1.5118591138172327e-10  1.4486927625212636e-10  1.3710456907019330e-10  1.3094915322628169e-10  1.2896519512118332e-10  1.3234054642443454e-10  1.4052135051656053e-10  1.5144313411349358e-10  1.6225554629063202e-10  1.7030281961411825e-10  1.7405706184342336e-10  1.7370957634046258e-10  1.7121641591716384e-10  1.6975799803046551e-10  1.7275759788421648e-10  1.8274018861730864e-10  2.0036155179805679e-10  2.2390437200478435e-10  2.4944137385577336e-10  2.7170199631437278e-10  2.8544941882220444e-10  2.8694514058600544e-10  2.7498379458162685e-10  2.5112594617954360e-10  2.1909732050523179e-10  1.8366751250061638e-10  1.4947331765274525e-10  1.2016045811673286e-10  9.7991722454867900e-11  8.3864233546002874e-11  7.7578911283523021e-11  7.8203477224745214e-11  8.4416531738275291e-11  9.4774345375720020e-11  1.0788776607423273e-10  1.2252796550186968e-10  1.3768930655449692e-10  1.5262144229192223e-10  1.6681324669353706e-10  1.7989960673650930e-10  1.9149705855948727e-10  2.0104677247340864e-10  2.0779624148462730e-10  2.1101918103004842e-10  2.1044795421165360e-10  2.0674371534380918e-10  2.0175467594474246e-10  1.9837069161191857e-10  1.9999325583430214e-10  2.1021020357728621e-10  2.3590237384624870e-10  3.1343627304584061e-10  6.8669491878186367e-10  3.0027520319545442e-09  1.8444869525998042e-08  1.2348619506002744e-07  8.4085827518406345e-07  5.4970468129263915e-06  3.1271838874624312e-05  1.4932455818740355e-04  6.0738008561264439e-04  2.1396154451507302e-03  6.4533726036278740e-03  1.6290346761571185e-02  3.2855478707148882e-02  5.1361048279135457e-02  5.9067174566369708e-02  4.9136867093887912e-02  3.0659985077373633e-02  1.5162172167549028e-02  6.1238793425931991e-03  2.1109174015262930e-03  6.3707487940230516e-04  1.7191756279741065e-04  4.2067179056047444e-05  9.4672162544227038e-06  1.9836162405512766e-06  3.9164743419515898e-07  7.3801658523959339e-08  1.3560322919701037e-08  2.5884616544716363e-09  6.2509227245433167e-10  2.5292965385987493e-10  1.5983326115374800e-10  1.2259416392687402e-10  1.0411336884003370e-10  9.6522937349144124e-11  9.5335630845819888e-11  9.6189268517735884e-11  9.5439484316763654e-11  9.1193478220998466e-11  8.3864106289438394e-11  7.5785751278998496e-11  6.9832592417308938e-11  6.7591606128766927e-11  6.8346839220250673e-11  7.0028470871694069e-11  7.1238080526992498e-11  7.1786662915218522e-11  7.1925559143710915e-11  1.1426910890730158e-10  1.1340952350262904e-10  1.1163489411191264e-10  1.1098685941925209e-10  1.1380216559375658e-10  1.2161558416573093e-10  1.3436267846726905e-10  1.5018452377024634e-10  1.6590028172863930e-10  1.7799302066365570e-10  1.8379940653733079e-10  1.8252474802329721e-10  1.7573921990783742e-10  1.6715706727030594e-10  1.6172352004682786e-10  1.6425020313354882e-10  1.7796595348496275e-10  2.0336545273639617e-10  2.3768183371134650e-10  2.7520836132280212e-10  3.08516497731