<?xml version="1.0"?>
<VTKFile type="UnstructuredGrid"  version="0.1"  >
<UnstructuredGrid>
<Piece  NumberOfPoints="20201" NumberOfCells="40000">
<Points>
<DataArray  type="Float64"  NumberOfComponents="3"  format="ascii">0 0 0  2 0 0  4 0 0  6 0 0  8 0 0  10 0 0  12 0 0  14 0 0  16 0 0  18 0 0  20 0 0  22 0 0  24 0 0  26 0 0  28 0 0  30 0 0  32 0 0  34 0 0  36 0 0  38 0 0  40 0 0  42 0 0  44 0 0  46 0 0  48 0 0  50 0 0  52 0 0  54 0 0  56 0 0  58 0 0  60 0 0  62 0 0  64 0 0  66 0 0  68 0 0  70 0 0  72 0 0  74 0 0  76 0 0  78 0 0  80 0 0  82 0 0  84 0 0  86 0 0  88 0 0  90 0 0  92 0 0  94 0 0  96 0 0  98 0 0  100 0 0  102 0 0  104 0 0  106 0 0  108 0 0  110 0 0  112 0 0  114 0 0  116 0 0  118 0 0  120 0 0  122 0 0  124 0 0  126 0 0  128 0 0  130 0 0  132 0 0  134 0 0  136 0 0  138 0 0  140 0 0  142 0 0  144 0 0  146 0 0  148 0 0  150 0 0  152 0 0  154 0 0  156 0 0  158 0 0  160 0 0  162 0 0  164 0 0  166 0 0  168 0 0  170 0 0  172 0 0  174 0 0  176 0 0  178 0 0  180 0 0  182 0 0  184 0 0  186 0 0  188 0 0  190 0 0  192 0 0  194 0 0  196 0 0  198 0 0  200 0 0  0 2 0  2 2 0  4 2 0  6 2 0  8 2 0  10 2 0  12 2 0  14 2 0  16 2 0  18 2 0  20 2 0  22 2 0  24 2 0  26 2 0  28 2 0  30 2 0  32 2 0  34 2 0  36 2 0  38 2 0  40 2 0  42 2 0  44 2 0  46 2 0  48 2 0  50 2 0  52 2 0  54 2 0  56 2 0  58 2 0  60 2 0  62 2 0  64 2 0  66 2 0  68 2 0  70 2 0  72 2 0  74 2 0  76 2 0  78 2 0  80 2 0  82 2 0  84 2 0  86 2 0  88 2 0  90 2 0  92 2 0  94 2 0  96 2 0  98 2 0  100 2 0  102 2 0  104 2 0  106 2 0  108 2 0  110 2 0  112 2 0  114 2 0  116 2 0  118 2 0  120 2 0  122 2 0  124 2 0  126 2 0  128 2 0  130 2 0  132 2 0  134 2 0  136 2 0  138 2 0  140 2 0  142 2 0  144 2 0  146 2 0  148 2 0  150 2 0  152 2 0  154 2 0  156 2 0  158 2 0  160 2 0  162 2 0  164 2 0  166 2 0  168 2 0  170 2 0  172 2 0  174 2 0  176 2 0  178 2 0  180 2 0  182 2 0  184 2 0  186 2 0  188 2 0  190 2 0  192 2 0  194 2 0  196 2 0  198 2 0  200 2 0  0 4 0  2 4 0  4 4 0  6 4 0  8 4 0  10 4 0  12 4 0  14 4 0  16 4 0  18 4 0  20 4 0  22 4 0  24 4 0  26 4 0  28 4 0  30 4 0  32 4 0  34 4 0  36 4 0  38 4 0  40 4 0  42 4 0  44 4 0  46 4 0  48 4 0  50 4 0  52 4 0  54 4 0  56 4 0  58 4 0  60 4 0  62 4 0  64 4 0  66 4 0  68 4 0  70 4 0  72 4 0  74 4 0  76 4 0  78 4 0  80 4 0  82 4 0  84 4 0  86 4 0  88 4 0  90 4 0  92 4 0  94 4 0  96 4 0  98 4 0  100 4 0  102 4 0  104 4 0  106 4 0  108 4 0  110 4 0  112 4 0  114 4 0  116 4 0  118 4 0  120 4 0  122 4 0  124 4 0  126 4 0  128 4 0  130 4 0  132 4 0  134 4 0  136 4 0  138 4 0  140 4 0  142 4 0  144 4 0  146 4 0  148 4 0  150 4 0  152 4 0  154 4 0  156 4 0  158 4 0  160 4 0  162 4 0  164 4 0  166 4 0  168 4 0  170 4 0  172 4 0  174 4 0  176 4 0  178 4 0  180 4 0  182 4 0  184 4 0  186 4 0  188 4 0  190 4 0  192 4 0  194 4 0  196 4 0  198 4 0  200 4 0  0 6 0  2 6 0  4 6 0  6 6 0  8 6 0  10 6 0  12 6 0  14 6 0  16 6 0  18 6 0  20 6 0  22 6 0  24 6 0  26 6 0  28 6 0  30 6 0  32 6 0  34 6 0  36 6 0  38 6 0  40 6 0  42 6 0  44 6 0  46 6 0  48 6 0  50 6 0  52 6 0  54 6 0  56 6 0  58 6 0  60 6 0  62 6 0  64 6 0  66 6 0  68 6 0  70 6 0  72 6 0  74 6 0  76 6 0  78 6 0  80 6 0  82 6 0  84 6 0  86 6 0  88 6 0  90 6 0  92 6 0  94 6 0  96 6 0  98 6 0  100 6 0  102 6 0  104 6 0  106 6 0  108 6 0  110 6 0  112 6 0  114 6 0  116 6 0  118 6 0  120 6 0  122 6 0  124 6 0  126 6 0  128 6 0  130 6 0  132 6 0  134 6 0  136 6 0  138 6 0  140 6 0  142 6 0  144 6 0  146 6 0  148 6 0  150 6 0  152 6 0  154 6 0  156 6 0  158 6 0  160 6 0  162 6 0  164 6 0  166 6 0  168 6 0  170 6 0  172 6 0  174 6 0  176 6 0  178 6 0  180 6 0  182 6 0  184 6 0  186 6 0  188 6 0  190 6 0  192 6 0  194 6 0  196 6 0  198 6 0  200 6 0  0 8 0  2 8 0  4 8 0  6 8 0  8 8 0  10 8 0  12 8 0  14 8 0  16 8 0  18 8 0  20 8 0  22 8 0  24 8 0  26 8 0  28 8 0  30 8 0  32 8 0  34 8 0  36 8 0  38 8 0  40 8 0  42 8 0  44 8 0  46 8 0  48 8 0  50 8 0  52 8 0  54 8 0  56 8 0  58 8 0  60 8 0  62 8 0  64 8 0  66 8 0  68 8 0  70 8 0  72 8 0  74 8 0  76 8 0  78 8 0  80 8 0  82 8 0  84 8 0  86 8 0  88 8 0  90 8 0  92 8 0  94 8 0  96 8 0  98 8 0  100 8 0  102 8 0  104 8 0  106 8 0  108 8 0  110 8 0  112 8 0  114 8 0  116 8 0  118 8 0  120 8 0  122 8 0  124 8 0  126 8 0  128 8 0  130 8 0  132 8 0  134 8 0  136 8 0  138 8 0  140 8 0  142 8 0  144 8 0  146 8 0  148 8 0  150 8 0  152 8 0  154 8 0  156 8 0  158 8 0  160 8 0  162 8 0  164 8 0  166 8 0  168 8 0  170 8 0  172 8 0  174 8 0  176 8 0  178 8 0  180 8 0  182 8 0  184 8 0  186 8 0  188 8 0  190 8 0  192 8 0  194 8 0  196 8 0  198 8 0  200 8 0  0 10 0  2 10 0  4 10 0  6 10 0  8 10 0  10 10 0  12 10 0  14 10 0  16 10 0  18 10 0  20 10 0  22 10 0  24 10 0  26 10 0  28 10 0  30 10 0  32 10 0  34 10 0  36 10 0  38 10 0  40 10 0  42 10 0  44 10 0  46 10 0  48 10 0  50 10 0  52 10 0  54 10 0  56 10 0  58 10 0  60 10 0  62 10 0  64 10 0  66 10 0  68 10 0  70 10 0  72 10 0  74 10 0  76 10 0  78 10 0  80 10 0  82 10 0  84 10 0  86 10 0  88 10 0  90 10 0  92 10 0  94 10 0  96 10 0  98 10 0  100 10 0  102 10 0  104 10 0  106 10 0  108 10 0  110 10 0  112 10 0  114 10 0  116 10 0  118 10 0  120 10 0  122 10 0  124 10 0  126 10 0  128 10 0  130 10 0  132 10 0  134 10 0  136 10 0  138 10 0  140 10 0  142 10 0  144 10 0  146 10 0  148 10 0  150 10 0  152 10 0  154 10 0  156 10 0  158 10 0  160 10 0  162 10 0  164 10 0  166 10 0  168 10 0  170 10 0  172 10 0  174 10 0  176 10 0  178 10 0  180 10 0  182 10 0  184 10 0  186 10 0  188 10 0  190 10 0  192 10 0  194 10 0  196 10 0  198 10 0  200 10 0  0 12 0  2 12 0  4 12 0  6 12 0  8 12 0  10 12 0  12 12 0  14 12 0  16 12 0  18 12 0  20 12 0  22 12 0  24 12 0  26 12 0  28 12 0  30 12 0  32 12 0  34 12 0  36 12 0  38 12 0  40 12 0  42 12 0  44 12 0  46 12 0  48 12 0  50 12 0  52 12 0  54 12 0  56 12 0  58 12 0  60 12 0  62 12 0  64 12 0  66 12 0  68 12 0  70 12 0  72 12 0  74 12 0  76 12 0  78 12 0  80 12 0  82 12 0  84 12 0  86 12 0  88 12 0  90 12 0  92 12 0  94 12 0  96 12 0  98 12 0  100 12 0  102 12 0  104 12 0  106 12 0  108 12 0  110 12 0  112 12 0  114 12 0  116 12 0  118 12 0  120 12 0  122 12 0  124 12 0  126 12 0  128 12 0  130 12 0  132 12 0  134 12 0  136 12 0  138 12 0  140 12 0  142 12 0  144 12 0  146 12 0  148 12 0  150 12 0  152 12 0  154 12 0  156 12 0  158 12 0  160 12 0  162 12 0  164 12 0  166 12 0  168 12 0  170 12 0  172 12 0  174 12 0  176 12 0  178 12 0  180 12 0  182 12 0  184 12 0  186 12 0  188 12 0  190 12 0  192 12 0  194 12 0  196 12 0  198 12 0  200 12 0  0 14 0  2 14 0  4 14 0  6 14 0  8 14 0  10 14 0  12 14 0  14 14 0  16 14 0  18 14 0  20 14 0  22 14 0  24 14 0  26 14 0  28 14 0  30 14 0  32 14 0  34 14 0  36 14 0  38 14 0  40 14 0  42 14 0  44 14 0  46 14 0  48 14 0  50 14 0  52 14 0  54 14 0  56 14 0  58 14 0  60 14 0  62 14 0  64 14 0  66 14 0  68 14 0  70 14 0  72 14 0  74 14 0  76 14 0  78 14 0  80 14 0  82 14 0  84 14 0  86 14 0  88 14 0  90 14 0  92 14 0  94 14 0  96 14 0  98 14 0  100 14 0  102 14 0  104 14 0  106 14 0  108 14 0  110 14 0  112 14 0  114 14 0  116 14 0  118 14 0  120 14 0  122 14 0  124 14 0  126 14 0  128 14 0  130 14 0  132 14 0  134 14 0  136 14 0  138 14 0  140 14 0  142 14 0  144 14 0  146 14 0  148 14 0  150 14 0  152 14 0  154 14 0  156 14 0  158 14 0  160 14 0  162 14 0  164 14 0  166 14 0  168 14 0  170 14 0  172 14 0  174 14 0  176 14 0  178 14 0  180 14 0  182 14 0  184 14 0  186 14 0  188 14 0  190 14 0  192 14 0  194 14 0  196 14 0  198 14 0  200 14 0  0 16 0  2 16 0  4 16 0  6 16 0  8 16 0  10 16 0  12 16 0  14 16 0  16 16 0  18 16 0  20 16 0  22 16 0  24 16 0  26 16 0  28 16 0  30 16 0  32 16 0  34 16 0  36 16 0  38 16 0  40 16 0  42 16 0  44 16 0  46 16 0  48 16 0  50 16 0  52 16 0  54 16 0  56 16 0  58 16 0  60 16 0  62 16 0  64 16 0  66 16 0  68 16 0  70 16 0  72 16 0  74 16 0  76 16 0  78 16 0  80 16 0  82 16 0  84 16 0  86 16 0  88 16 0  90 16 0  92 16 0  94 16 0  96 16 0  98 16 0  100 16 0  102 16 0  104 16 0  106 16 0  108 16 0  110 16 0  112 16 0  114 16 0  116 16 0  118 16 0  120 16 0  122 16 0  124 16 0  126 16 0  128 16 0  130 16 0  132 16 0  134 16 0  136 16 0  138 16 0  140 16 0  142 16 0  144 16 0  146 16 0  148 16 0  150 16 0  152 16 0  154 16 0  156 16 0  158 16 0  160 16 0  162 16 0  164 16 0  166 16 0  168 16 0  170 16 0  172 16 0  174 16 0  176 16 0  178 16 0  180 16 0  182 16 0  184 16 0  186 16 0  188 16 0  190 16 0  192 16 0  194 16 0  196 16 0  198 16 0  200 16 0  0 18 0  2 18 0  4 18 0  6 18 0  8 18 0  10 18 0  12 18 0  14 18 0  16 18 0  18 18 0  20 18 0  22 18 0  24 18 0  26 18 0  28 18 0  30 18 0  32 18 0  34 18 0  36 18 0  38 18 0  40 18 0  42 18 0  44 18 0  46 18 0  48 18 0  50 18 0  52 18 0  54 18 0  56 18 0  58 18 0  60 18 0  62 18 0  64 18 0  66 18 0  68 18 0  70 18 0  72 18 0  74 18 0  76 18 0  78 18 0  80 18 0  82 18 0  84 18 0  86 18 0  88 18 0  90 18 0  92 18 0  94 18 0  96 18 0  98 18 0  100 18 0  102 18 0  104 18 0  106 18 0  108 18 0  110 18 0  112 18 0  114 18 0  116 18 0  118 18 0  120 18 0  122 18 0  124 18 0  126 18 0  128 18 0  130 18 0  132 18 0  134 18 0  136 18 0  138 18 0  140 18 0  142 18 0  144 18 0  146 18 0  148 18 0  150 18 0  152 18 0  154 18 0  156 18 0  158 18 0  160 18 0  162 18 0  164 18 0  166 18 0  168 18 0  170 18 0  172 18 0  174 18 0  176 18 0  178 18 0  180 18 0  182 18 0  184 18 0  186 18 0  188 18 0  190 18 0  192 18 0  194 18 0  196 18 0  198 18 0  200 18 0  0 20 0  2 20 0  4 20 0  6 20 0  8 20 0  10 20 0  12 20 0  14 20 0  16 20 0  18 20 0  20 20 0  22 20 0  24 20 0  26 20 0  28 20 0  30 20 0  32 20 0  34 20 0  36 20 0  38 20 0  40 20 0  42 20 0  44 20 0  46 20 0  48 20 0  50 20 0  52 20 0  54 20 0  56 20 0  58 20 0  60 20 0  62 20 0  64 20 0  66 20 0  68 20 0  70 20 0  72 20 0  74 20 0  76 20 0  78 20 0  80 20 0  82 20 0  84 20 0  86 20 0  88 20 0  90 20 0  92 20 0  94 20 0  96 20 0  98 20 0  100 20 0  102 20 0  104 20 0  106 20 0  108 20 0  110 20 0  112 20 0  114 20 0  116 20 0  118 20 0  120 20 0  122 20 0  124 20 0  126 20 0  128 20 0  130 20 0  132 20 0  134 20 0  136 20 0  138 20 0  140 20 0  142 20 0  144 20 0  146 20 0  148 20 0  150 20 0  152 20 0  154 20 0  156 20 0
[...]
<PointData  Scalars="f_271-4"> 
<DataArray  type="Float64"  Name="f_271-4"  format="ascii">1.4371771431257391e-10  1.3883951798041604e-10  1.2544830734530169e-10  1.0687550975875045e-10  8.7517236247363547e-11  7.1596571803056661e-11  6.2126813573255640e-11  6.0319346179766344e-11  6.5485395433661116e-11  7.5366544133515884e-11  8.6784352405146797e-11  9.6461522398632563e-11  1.0181465256124809e-10  1.0149918307322005e-10  9.5556612226411922e-11  8.5163122740146206e-11  7.2127066858170094e-11  5.8346386223025372e-11  4.5396537767098992e-11  3.4323239048098362e-11  2.5626420184733750e-11  1.9374371962256521e-11  1.5375617901139270e-11  1.3343376284288016e-11  1.3003876636662663e-11  1.4124076750589489e-11  1.6465171658293047e-11  1.9698728498974202e-11  2.3341234441476008e-11  2.6760261153902196e-11  2.9277722332420305e-11  3.0349978228977873e-11  2.9759764701210306e-11  2.7735734357987286e-11  2.4938225663663358e-11  2.2308728152850525e-11  2.0844647275232209e-11  2.1390515696889737e-11  2.4509367904213291e-11  3.0429910648463877e-11  3.9009075845109900e-11  4.9659479177994976e-11  6.1271150413806850e-11  7.2240083776320886e-11  8.0713115645440637e-11  8.5042567264924275e-11  8.4289894508978607e-11  7.8545693425550308e-11  6.8907767765508373e-11  5.7134585146518073e-11  4.5152471615811873e-11  3.4616356239197578e-11  2.6386864521005348e-11  1.8938307048355379e-11  8.0456227327810164e-12  7.6638442859657195e-12  -1.1497375687671546e-10  2.3537463556969800e-09  -5.1477658543446627e-08  1.1329310785242449e-06  -2.4929278841477345e-05  6.2275599409486395e-04  2.1465838647927712e-01  7.9443922594178629e-01  9.6839451647101482e-01  9.9442050883642374e-01  9.9885848145504075e-01  9.9958092814129806e-01  9.9932555744942209e-01  9.9766123747777624e-01  9.9041202639693371e-01  9.5697644651699509e-01  7.8428439919668536e-01  2.9422264888061778e-01  4.8079434376650555e-02  6.5750723000626461e-03  8.9608914878538969e-04  1.2301618231080883e-04  1.7015660609419390e-05  2.3686979252256388e-06  3.3150930950082609e-07  4.6617494789078329e-08  6.5959991748818399e-09  9.5740148842845552e-10  1.6861632116403139e-10  6.8371802116589167e-11  6.6967920708665190e-11  7.8033001106386459e-11  8.4586674541998239e-11  7.6567964318967140e-11  4.3998305838911262e-11  7.6190094539118199e-12  2.3498225941105351e-13  4.8062459529700640e-15  -1.8449143925697963e-17  6.5353316096301919e-18  -1.4680052872162255e-19  1.4616678990595858e-20  -3.0438587880942433e-21  -4.8472463813260218e-21  -5.4764469136762320e-21  1.3941304449677238e-10  1.3471383898974717e-10  1.2180898669430515e-10  1.0389623374496822e-10  8.5200518167505485e-11  6.9788743376001465e-11  6.0573245628569697e-11  5.8738612381450833e-11  6.3641793339776955e-11  7.3125281758337026e-11  8.4138930077876156e-11  9.3528614101942902e-11  9.8799493461199341e-11  9.8642863004512981e-11  9.3081770279834120e-11  8.3233096230027513e-11  7.0826317903257450e-11  5.7681328106452257e-11  4.5310128190598122e-11  3.4715439715072993e-11  2.6374449591883156e-11  2.0349327656280315e-11  1.6454158024289359e-11  1.4414568597833419e-11  1.3972356300710683e-11  1.4911400152041497e-11  1.7011468156852966e-11  1.9966126286053376e-11  2.3319053500868720e-11  2.6470105028781523e-11  2.8775267476836485e-11  2.9720390334268100e-11  2.9105615322104504e-11  2.7159356673394708e-11  2.4523066769389354e-11  2.2104872972298337e-11  2.0861857089156262e-11  2.1598952971643177e-11  2.4845707480494225e-11  3.0806328064493367e-11  3.9324462363215456e-11  4.9814090224425774e-11  6.1185336458046825e-11  7.1874318274472956e-11  8.0082671991590508e-11  8.4219533589177321e-11  8.3389396312610626e-11  7.7700243733645154e-11  6.8239666780870741e-11  5.6740156552292180e-11  4.5125167113089928e-11  3.5208035420429555e-11  2.8602122669703719e-11  2.5025594632461724e-11  1.6421623013997825e-11  1.0181658349034622e-11  -3.1547730255068204e-10  7.5419754287340949e-09  -1.6047117859605464e-07  3.2342306496773049e-06  -6.4403275541905359e-05  1.5078139265619294e-03  2.1923522134182172e-01  7.9053147647909183e-01  9.6637777110894929e-01  9.9370647475255602e-01  9.9856090822774912e-01  9.9937044610652215e-01  9.9901158005771307e-01  9.9689312278769693e-01  9.8803279782864661e-01  9.4826312545376834e-01  7.5075851313864161e-01  2.6005806835382295e-01  4.2047428913121583e-02  5.8975321279044366e-03  8.1767472383176905e-04  1.1362965538501086e-04  1.5862504431634695e-05  2.2241207204408021e-06  3.1308960871647623e-07  4.4240230825040099e-08  6.2860717502142618e-09  9.1650248804264977e-10  1.6258128481879382e-10  6.6346669428849441e-11  6.4854553929506886e-11  7.5426378240998394e-11  8.1894018558639070e-11  7.5043378910186240e-11  4.5633829967646733e-11  9.3825733222681722e-12  3.7992926286979427e-13  8.3415369820389073e-15  1.2625283012247634e-16  1.3771086543054078e-17  -2.4177747007186280e-19  -6.3004401728270020e-20  -1.3753995928269614e-20  6.7091689909225571e-21  1.3598973886676193e-20  1.2729411439724185e-10  1.2309696675617301e-10  1.1155845190888001e-10  9.5506301250260372e-11  7.8689755825309901e-11  6.4738478505506139e-11  5.6277703848023784e-11  5.4409181028455383e-11  5.8609007292142880e-11  6.6994874628569871e-11  7.6872239206895315e-11  8.5433318814874904e-11  9.0437817248944645e-11  9.0687665549193335e-11  8.6165512627684804e-11  7.7831447053919386e-11  6.7198922074834716e-11  5.5868585338285497e-11  4.5168862683679368e-11  3.5972511835388107e-11  2.8682015540052252e-11  2.3332369589035475e-11  1.9746306716439882e-11  1.7681724687493188e-11  1.6926196944317250e-11  1.7316958900591586e-11  1.8693920537449071e-11  2.0820674786347928e-11  2.3324117943612961e-11  2.5699099460638164e-11  2.7398617097539396e-11  2.7989788074729063e-11  2.7317859562176260e-11  2.5605528108653033e-11  2.3435924915847816e-11  2.1618875858831711e-11  2.0994920197381618e-11  2.2256103753566652e-11  2.5837889202386805e-11  3.1877141240702716e-11  4.0183002199882894e-11  5.0177315082005260e-11  6.0831718081824339e-11  7.0700649393379446e-11  7.8144946333852021e-11  8.1737156770416668e-11  8.0704200818683565e-11  7.5202003965356050e-11  6.6286757558547408e-11  5.5615135015167055e-11  4.5109171468867639e-11  3.7134198571908868e-11  3.6460939822077802e-11  5.4295335268661456e-11  8.8945733951125071e-11  1.1568013962904359e-10  -2.0510042198751526e-09  3.6009595188056610e-08  -6.2045004158925633e-07  1.0644466523507580e-05  -1.8760806574784046e-04  4.5964647354081846e-03  2.1445863072616400e-01  7.5965781304064961e-01  9.5598083743065509e-01  9.9027768816744455e-01  9.9707193183177623e-01  9.9828352702490342e-01  9.9747134167143547e-01  9.9344456168380058e-01  9.7789104709460495e-01  9.1238032688587845e-01  6.2668629244627516e-01  1.7516103378928577e-01  2.8561845415173620e-02  4.2789931555862904e-03  6.2260132908448793e-04  8.9651036922633556e-05  1.2858528840014336e-05  1.8418229448432314e-06  2.6379936636600521e-07  3.7816709128335865e-08  5.4420026764029137e-09  8.0449974295021394e-10  1.4605595290029622e-10  6.0824192393461867e-11  5.9055469799996642e-11  6.8219834768754913e-11  7.4310452309503329e-11  7.0097688633566575e-11  4.8549248732345688e-11  1.5294747243107920e-11  1.1955770815348439e-12  3.5304555718054964e-14  1.6312937759942032e-15  9.8017356294308501e-17  6.0596258316165568e-18  2.4705541126622748e-18  1.0671775977439863e-18  6.5596459675644108e-19  5.2794964112384345e-19  1.0952055428524800e-10  1.0605474835813353e-10  9.6512960487810277e-11  8.3198870688049727e-11  6.9182386254015787e-11  5.7459259880495473e-11  5.0225184715539854e-11  4.8438236715902098e-11  5.1720241241765170e-11  5.8565282386870797e-11  6.6782990014239806e-11  7.4071719765968885e-11  7.8579893628121160e-11  7.9300946677646084e-11  7.6193565549030954e-11  7.0019437559414854e-11  6.1994520250461639e-11  5.3400326628622574e-11  4.5281530699783763e-11  3.8292918324259849e-11  3.2694041754097821e-11  2.8448616981972800e-11  2.5369774859068306e-11  2.3254251080607619e-11  2.1963004259257490e-11  2.1429724010359580e-11  2.1607342031694993e-11  2.2387484748455224e-11  2.3539693410539138e-11  2.4710580761299021e-11  2.5498424579092358e-11  2.5583774458689917e-11  2.4865715940774856e-11  2.3542757521090972e-11  2.2096420644789282e-11  2.1178749852501083e-11  2.1450081138947756e-11  2.3432823761292150e-11  2.7425601173502707e-11  3.3472345359839339e-11  4.1341401404425369e-11  5.0479190586030685e-11  5.9962853107327865e-11  6.8536196525576077e-11  7.4807453979971335e-11  7.7598160429250224e-11  7.6317833235461198e-11  7.1189589659071977e-11  6.3216108842126569e-11  5.3934712750270588e-11  4.5276870269111542e-11  4.0658275888043132e-11  5.2005644750609385e-11  1.3025612445632914e-10  4.3911007363802998e-10  1.1306294740503920e-09  -2.0566025363305137e-09  5.6020660311286203e-08  -8.6742166806148293e-07  1.3854689336106761e-05  -2.1446488426069661e-04  9.6519293084985965e-03  1.6283806459784800e-01  6.3872876886345342e-01  9.1820051345222142e-01  9.7767152105504684e-01  9.9118354765037531e-01  9.9373371055009196e-01  9.9145354143163467e-01  9.8124238641735106e-01  9.4563262262611147e-01  8.0114953540023259e-01  3.8860887493119445e-01  8.7933503553386402e-02  1.5595572049165743e-02  2.5474861675877534e-03  3.9823815377838264e-04  6.0617544145670125e-05  9.0802053290916583e-06  1.3465751739275078e-06  1.9842054742450996e-07  2.9130567888021886e-08  4.2826599387890013e-09  6.4901883943514483e-10  1.2315701583791081e-10  5.3248938564779300e-11  5.0987453817368085e-11  5.8041067049892235e-11  6.3276356035103338e-11  6.1588491137019837e-11  4.8601758978994659e-11  2.4090469053239719e-11  4.4689983971475754e-12  2.6650817151637242e-13  1.8519490482034699e-14  1.3454655601478003e-15  1.3063000012921388e-16  -1.4850855314758522e-17  -2.6254566090732267e-17  -2.4046215325837805e-17  -2.2594448614019884e-17  8.9026199796518913e-11  8.6396331455988627e-11  7.9148440054745421e-11  6.9014547776418746e-11  5.8313650483187930e-11  4.9323868820084664e-11  4.3730673723189807e-11  4.2286359102644521e-11  4.4727405271044887e-11  4.9930949461288882e-11  5.6254533610524587e-11  6.1975123704810276e-11  6.5716357456742436e-11  6.6745815173750086e-11  6.5060307488201425e-11  6.1253026893688426e-11  5.6235547340582938e-11  5.0928704597606767e-11  4.6024704696383448e-11  4.1875907663593333e-11  3.8512952529222727e-11  3.5755970788826103e-11  3.3363084969941845e-11  3.1159065693574292e-11  2.9101943896870691e-11  2.7272515908961560e-11  2.5802416718757561e-11  2.4779553829703269e-11  2.4176730343698766e-11  2.3838241452509326e-11  2.3534477774041662e-11  2.3064925428932838e-11  2.2366730662570826e-11  2.1580110207406243e-11  2.1038679930404991e-11  2.1186704896003278e-11  2.2459487874449300e-11  2.5177053455086363e-11  2.9484052307865842e-11  3.5330508737979502e-11  4.2458543083749330e-11  5.0369053689317333e-11  5.8289551395452167e-11  6.5209983042532280e-11  7.0046566149227261e-11  7.1921917369044185e-11  7.0459650838388031e-11  6.5954584698507433e-11  5.9335647636150022e-11  5.1987640325262087e-11  4.5850548334297595e-11  4.5765704229333720e-11  7.4690138155998384e-11  2.5906786938533179e-10  1.2628559808952251e-09  5.9671610755001459e-09  2.5616504654677957e-08  6.5584214202856565e-08  1.0363861922342544e-06  1.5571363489961042e-06  4.0804861335244939e-04  1.0944748394086734e-02  8.3699935190252095e-02  3.7372662475351803e-01  7.7866911411686057e-01  9.2932800334446020e-01  9.6583069321994564e-01  9.7325842778510130e-01  9.6576769624840586e-01  9.3442877249532375e-01  8.2653712655864897e-01  5.1368055471681062e-01  1.6084744999046002e-01  3.5560934890756721e-02  7.0167459094796058e-03  1.2697175265836299e-03  2.1626585071874197e-04  3.5328390068048972e-05  5.6038529457133039e-06  8.7082358268843734e-07  1.3338919240161341e-07  2.0240200687298143e-08  3.0684432933770548e-09  4.8375610815384003e-10  9.8994776021983530e-11  4.5423331580891075e-11  4.2429905129382498e-11  4.6984015355873676e-11  5.0887099908818910e-11  5.0728573695623649e-11  4.3989812422862564e-11  2.9745414742685932e-11  1.2204138719270854e-11  2.2477232789178827e-12  2.2412375698055043e-13  2.3632675703803525e-14  3.6934324619431870e-15  1.3658865830378884e-15  8.9569168346306886e-16  7.2320471595835481e-16  6.7182321645378600e-16  6.8780693604761375e-11  6.6968937489349571e-11  6.1982611545111174e-11  5.5033837177360727e-11  4.7745005222467843e-11  4.1704674629726208e-11  3.8074031730326853e-11  3.7345047584938362e-11  3.9289583911587343e-11  4.3086905798726401e-11  4.7583678292373052e-11  5.1617365795935884e-11  5.4317328874501452e-11  5.5298430637896599e-11  5.4692359400821771e-11  5.3017859565874858e-11  5.0948107605391998e-11  4.9064089651119431e-11  4.7676362021219248e-11  4.6763603639136637e-11  4.6032775506526375e-11  4.5066817629866278e-11  4.3500528565627647e-11  4.1160036535161388e-11  3.8118991991460807e-11  3.4659696942872463e-11  3.1165005164402217e-11  2.7990402368406688e-11  2.5366719854140976e-11  2.3365562812899184e-11  2.1932026904302431e-11  2.0963513359312456e-11  2.0397565186362308e-11  2.0270560628929048e-11  2.0723666213122174e-11  2.1957417599162735e-11  2.4160037848330809e-11  2.7443600561249298e-11  3.1809602849975856e-11  3.7139059589712116e-11  4.3182964239335616e-11  4.9537102419300501e-11  5.5619602067524182e-11  6.0701083249610131e-11  6.4029898788338412e-11  6.5041067874924706e-11  6.3571598793312864e-11  5.9978952301045429e-11  5.5104787491204909e-11  5.0162095183600723e-11  4.7057658183189598e-11  5.1972168045234404e-11  9.9396799948767174e-11  4.0445791193421748e-10  2.3197591370979462e-09  1.4414772395085557e-08  9.0793519421673543e-08  6.2595236028452102e-07  5.0043905043730174e-06  6.1649293994860200e-05  8.1919605921587668e-04  6.2855701570382963e-03  3.2440295802528149e-02  1.3413582707164276e-01  4.1346605226198646e-01  7.1359859760506905e-01  8.3940130400442670e-01  8.6751068910117679e-01  8.3864456082847305e-01  7.2538777462507043e-01  4.6459413198321092e-01  1.8033781898874227e-01  5.0329942979860182e-02  1.2330142800501563e-02  2.6901877436493493e-03  5.4024952819053073e-04  1.0107368538491424e-04  1.7891512818780664e-05  3.0371179450212384e-06  4.9959916108879518e-07  8.0298176426690728e-08  1.2706200679344090e-08  2.0083662332594834e-09  3.3697905862112741e-10  7.7969335240708732e-11  3.8908413457991112e-11  3.4951014922992403e-11  3.6958919873902879e-11  3.9276077593176377e-11  3.9642407190432937e-11  3.6545088558844528e-11  2.9375209770052023e-11  1.9041310498218214e-11  8.7409756151653755e-12  2.6402307132537614e-12  6.6061455367566404e-13  1.7721818849065174e-13  5.4425939225469056e-14  1.9375136479453701e-14  8.8098753227690654e-15  6.4367603553760926e-15  5.1147247820038050e-11  5.0041967254182832e-11  4.7029171705054353e-11  4.2921776141453769e-11  3.8790597061383372e-11  3.5648767993450165e-11  3.4177821689751521e-11  3.4573000523597841e-11  3.6538002877018103e-11  3.9414995819842161e-11  4.2404536098418549e-11  4.4811430090016621e-11  4.6245915739069401e-11  4.6719649198992286e-11  4.6606578287134350e-11  4.6483070955460020e-11  4.6902434361911096e-11  4.8179621266945778e-11  5.0256693448877398e-11  5.2693269111451189e-11  5.4787137933592643e-11  5.5787417922671923e-11  5.5128324596610553e-11  5.2601407975407116e-11  4.8407591642582893e-11  4.3079817505989798e-11  3.7318128647737154e-11  3.1806047498070738e-11  2.7070691512323222e-11  2.3419459131137960e-11  2.0952199114390583e-11  1.9623781774790987e-11  1.9322640828685212e-11  1.9934506679776406e-11  2.1373411016767020e-11  2.3579174569964283e-11  2.6495285932683362e-11  3.0046176762489846e-11  3.4125167434723076e-11  3.8589056824523473e-11  4.3245582441747962e-11  4.7827684673232102e-11  5.1971641893022005e-11  5.5235231406495450e-11  5.7184371736574001e-11  5.7538424443039329e-11  5.6318848278189848e-11  5.3927810766739763e-11  5.1116670140857592e-11  4.8923010510872727e-11  4.9129947296227715e-11  5.8573559664226036e-11  1.1867566440726075e-10  5.0204674898838999e-10  3.0414280603367406e-09  2.0355813984493425e-08  1.4367230697330922e-07  1.0731408482043682e-06  8.7804200832180525e-06  7.3042186892033529e-05  4.8320243670163906e-04  2.4560284090217300e-03  1.0301359301691189e-02  3.6776325043221987e-02  1.0967389081957105e-01  2.5127170562613027e-01  3.9497319244727791e-01  4.5009104440560915e-01  3.9464328707163449e-01  2.5851722925015297e-01  1.2146037012487902e-01  4.4175297430759985e-02  1.3734283460447990e-02  3.7060247706877081e-03  9.0342264203138701e-04  2.0049862148215813e-04  4.1243602875979002e-05  7.9523910078931314e-06  1.4548218525231658e-06  2.5533027399129190e-07  4.3411302805287446e-08  7.2294681790653600e-09  1.2098762690711065e-09  2.2458219763868451e-10  6.2631877947787383e-11  3.4603311436746743e-11  2.9507344550030700e-11  2.9207083935441001e-11  2.9980055039259551e-11  3.0256073449064472e-11  2.8994950383695384e-11  2.5737543944255420e-11  2.0778304217687088e-11  1.5054038852413024e-11  9.7766097186636084e-12  5.8756550604634729e-12  3.4483034568451463e-12  2.1503193455078221e-12  1.5200725069975330e-12  1.2358132810086087e-12  1.1535376384009493e-12  3.7505778095122818e-11  3.6942983761472422e-11  3.5468795921104713e-11  3.3646428382818781e-11  3.2182392588491414e-11  3.1675676771821239e-11  3.2414404037688763e-11  3.4286989727273950e-11  3.6830044678036862e-11  3.9391123272084934e-11  4.1352482497435178e-11  4.2346078621430478e-11  4.2391823246153170e-11  4.1912128381256392e-11  4.1612821236433757e-11  4.2262369184168657e-11  4.4433173598287257e-11  4.8281073090656132e-11  5.3431736704926559e-11  5.9018468693376214e-11  6.3876367326074294e-11  6.6846523024831235e-11  6.7096723170718170e-11  6.4348396403620887e-11  5.8931647362974916e-11  5.1660835234106069e-11  4.3594444880153377e-11  3.5776459799624786e-11  2.9040800284588317e-11  2.3915349835670778e-11  2.0618047811881784e-11  1.9113302165553003e-11  1.9193508499470465e-11  2.0558926372407489e-11  2.2881038377745796e-11  2.5845264538047138e-11  2.9176320563587146e-11  3.2651881293536102e-11  3.6107142388894063e-11  3.9427436515629897e-11  4.2524671432654229e-11  4.5301141198905990e-11  4.7618588600755073e-11  4.9299647365552972e-11  5.0180626805435890e-11  5.0208017283238403e-11  4.9540339710098424e-11  4.8602831550021365e-11  4.8063147702927649e-11  4.8793552856567679e-11  5.2340621080430093e-11  6.5160600325578310e-11  1.2774781272880358e-10  5.0926633419377358e-10  3.0201880900902492e-09  2.0032843004421576e-08  1.3740877261157494e-07  9.5689059489457000e-07  6.4624425368971141e-06  3.7992715469590289e-05  1.8604292252812890e-04  7.7369613158877648e-04  2.7796294160715939e-03  8.5826359378121386e-03  2.2152295652258774e-02  4.6170806578256986e-02  7.4933568686917779e-02  8.8595955703801119e-02  7.4906352131808379e-02  4.6883515314389543e-02  2.3255130910995538e-02  9.5012744930312362e-03  3.2847803586763050e-03  9.9631029540257960e-04  2.6892825191963352e-04  6.6054205350106482e-05  1.4913714115492928e-05  3.1361033275759123e-06  6.2071895631895543e-07  1.1687510363322194e-07  2.1168905154938293e-08  3.7509881293326272e-09  6.8215079074951980e-10  1.4946283162169200e-10  5.3428321231854296e-11  3.2619602852176029e-11  2.6323297730535337e-11  2.4131552946534716e-11  2.3625602765335848e-11  2.3587143729358681e-11  2.3151339629795598e-11  2.1886369523898239e-11  1.9889472278495173e-11  1.7681558812209346e-11  1.5871727941530937e-11  1.4747342912099328e-11  1.4136548408907176e-11  1.3727903732866864e-11  1.3385307383119690e-11  1.3131806770389572e-11  1.3035903537716032e-11  2.8187506784712207e-11  2.7991759760380956e-11  2.7582908386004100e-11  2.7415611876204112e-11  2.8015001213423216e-11  2.9734337561515002e-11  3.2575152280869628e-11  3.6138433886920699e-11  3.9724544653772387e-11  4.2549617170678654e-11  4.4010031046007272e-11  4.3910332166723549e-11  4.2577588755723963e-11  4.0817302353825816e-11  3.9714545020061338e-11  4.0331799651702856e-11  4.3385017963243116e-11  4.8985793899175561e-11  5.6525346301294702e-11  6.4749577916625375e-11  7.20302761285