<?xml version="1.0"?>
<VTKFile type="UnstructuredGrid"  version="0.1"  >
<UnstructuredGrid>
<Piece  NumberOfPoints="20201" NumberOfCells="40000">
<Points>
<DataArray  type="Float64"  NumberOfComponents="3"  format="ascii">0 0 0  2 0 0  4 0 0  6 0 0  8 0 0  10 0 0  12 0 0  14 0 0  16 0 0  18 0 0  20 0 0  22 0 0  24 0 0  26 0 0  28 0 0  30 0 0  32 0 0  34 0 0  36 0 0  38 0 0  40 0 0  42 0 0  44 0 0  46 0 0  48 0 0  50 0 0  52 0 0  54 0 0  56 0 0  58 0 0  60 0 0  62 0 0  64 0 0  66 0 0  68 0 0  70 0 0  72 0 0  74 0 0  76 0 0  78 0 0  80 0 0  82 0 0  84 0 0  86 0 0  88 0 0  90 0 0  92 0 0  94 0 0  96 0 0  98 0 0  100 0 0  102 0 0  104 0 0  106 0 0  108 0 0  110 0 0  112 0 0  114 0 0  116 0 0  118 0 0  120 0 0  122 0 0  124 0 0  126 0 0  128 0 0  130 0 0  132 0 0  134 0 0  136 0 0  138 0 0  140 0 0  142 0 0  144 0 0  146 0 0  148 0 0  150 0 0  152 0 0  154 0 0  156 0 0  158 0 0  160 0 0  162 0 0  164 0 0  166 0 0  168 0 0  170 0 0  172 0 0  174 0 0  176 0 0  178 0 0  180 0 0  182 0 0  184 0 0  186 0 0  188 0 0  190 0 0  192 0 0  194 0 0  196 0 0  198 0 0  200 0 0  0 2 0  2 2 0  4 2 0  6 2 0  8 2 0  10 2 0  12 2 0  14 2 0  16 2 0  18 2 0  20 2 0  22 2 0  24 2 0  26 2 0  28 2 0  30 2 0  32 2 0  34 2 0  36 2 0  38 2 0  40 2 0  42 2 0  44 2 0  46 2 0  48 2 0  50 2 0  52 2 0  54 2 0  56 2 0  58 2 0  60 2 0  62 2 0  64 2 0  66 2 0  68 2 0  70 2 0  72 2 0  74 2 0  76 2 0  78 2 0  80 2 0  82 2 0  84 2 0  86 2 0  88 2 0  90 2 0  92 2 0  94 2 0  96 2 0  98 2 0  100 2 0  102 2 0  104 2 0  106 2 0  108 2 0  110 2 0  112 2 0  114 2 0  116 2 0  118 2 0  120 2 0  122 2 0  124 2 0  126 2 0  128 2 0  130 2 0  132 2 0  134 2 0  136 2 0  138 2 0  140 2 0  142 2 0  144 2 0  146 2 0  148 2 0  150 2 0  152 2 0  154 2 0  156 2 0  158 2 0  160 2 0  162 2 0  164 2 0  166 2 0  168 2 0  170 2 0  172 2 0  174 2 0  176 2 0  178 2 0  180 2 0  182 2 0  184 2 0  186 2 0  188 2 0  190 2 0  192 2 0  194 2 0  196 2 0  198 2 0  200 2 0  0 4 0  2 4 0  4 4 0  6 4 0  8 4 0  10 4 0  12 4 0  14 4 0  16 4 0  18 4 0  20 4 0  22 4 0  24 4 0  26 4 0  28 4 0  30 4 0  32 4 0  34 4 0  36 4 0  38 4 0  40 4 0  42 4 0  44 4 0  46 4 0  48 4 0  50 4 0  52 4 0  54 4 0  56 4 0  58 4 0  60 4 0  62 4 0  64 4 0  66 4 0  68 4 0  70 4 0  72 4 0  74 4 0  76 4 0  78 4 0  80 4 0  82 4 0  84 4 0  86 4 0  88 4 0  90 4 0  92 4 0  94 4 0  96 4 0  98 4 0  100 4 0  102 4 0  104 4 0  106 4 0  108 4 0  110 4 0  112 4 0  114 4 0  116 4 0  118 4 0  120 4 0  122 4 0  124 4 0  126 4 0  128 4 0  130 4 0  132 4 0  134 4 0  136 4 0  138 4 0  140 4 0  142 4 0  144 4 0  146 4 0  148 4 0  150 4 0  152 4 0  154 4 0  156 4 0  158 4 0  160 4 0  162 4 0  164 4 0  166 4 0  168 4 0  170 4 0  172 4 0  174 4 0  176 4 0  178 4 0  180 4 0  182 4 0  184 4 0  186 4 0  188 4 0  190 4 0  192 4 0  194 4 0  196 4 0  198 4 0  200 4 0  0 6 0  2 6 0  4 6 0  6 6 0  8 6 0  10 6 0  12 6 0  14 6 0  16 6 0  18 6 0  20 6 0  22 6 0  24 6 0  26 6 0  28 6 0  30 6 0  32 6 0  34 6 0  36 6 0  38 6 0  40 6 0  42 6 0  44 6 0  46 6 0  48 6 0  50 6 0  52 6 0  54 6 0  56 6 0  58 6 0  60 6 0  62 6 0  64 6 0  66 6 0  68 6 0  70 6 0  72 6 0  74 6 0  76 6 0  78 6 0  80 6 0  82 6 0  84 6 0  86 6 0  88 6 0  90 6 0  92 6 0  94 6 0  96 6 0  98 6 0  100 6 0  102 6 0  104 6 0  106 6 0  108 6 0  110 6 0  112 6 0  114 6 0  116 6 0  118 6 0  120 6 0  122 6 0  124 6 0  126 6 0  128 6 0  130 6 0  132 6 0  134 6 0  136 6 0  138 6 0  140 6 0  142 6 0  144 6 0  146 6 0  148 6 0  150 6 0  152 6 0  154 6 0  156 6 0  158 6 0  160 6 0  162 6 0  164 6 0  166 6 0  168 6 0  170 6 0  172 6 0  174 6 0  176 6 0  178 6 0  180 6 0  182 6 0  184 6 0  186 6 0  188 6 0  190 6 0  192 6 0  194 6 0  196 6 0  198 6 0  200 6 0  0 8 0  2 8 0  4 8 0  6 8 0  8 8 0  10 8 0  12 8 0  14 8 0  16 8 0  18 8 0  20 8 0  22 8 0  24 8 0  26 8 0  28 8 0  30 8 0  32 8 0  34 8 0  36 8 0  38 8 0  40 8 0  42 8 0  44 8 0  46 8 0  48 8 0  50 8 0  52 8 0  54 8 0  56 8 0  58 8 0  60 8 0  62 8 0  64 8 0  66 8 0  68 8 0  70 8 0  72 8 0  74 8 0  76 8 0  78 8 0  80 8 0  82 8 0  84 8 0  86 8 0  88 8 0  90 8 0  92 8 0  94 8 0  96 8 0  98 8 0  100 8 0  102 8 0  104 8 0  106 8 0  108 8 0  110 8 0  112 8 0  114 8 0  116 8 0  118 8 0  120 8 0  122 8 0  124 8 0  126 8 0  128 8 0  130 8 0  132 8 0  134 8 0  136 8 0  138 8 0  140 8 0  142 8 0  144 8 0  146 8 0  148 8 0  150 8 0  152 8 0  154 8 0  156 8 0  158 8 0  160 8 0  162 8 0  164 8 0  166 8 0  168 8 0  170 8 0  172 8 0  174 8 0  176 8 0  178 8 0  180 8 0  182 8 0  184 8 0  186 8 0  188 8 0  190 8 0  192 8 0  194 8 0  196 8 0  198 8 0  200 8 0  0 10 0  2 10 0  4 10 0  6 10 0  8 10 0  10 10 0  12 10 0  14 10 0  16 10 0  18 10 0  20 10 0  22 10 0  24 10 0  26 10 0  28 10 0  30 10 0  32 10 0  34 10 0  36 10 0  38 10 0  40 10 0  42 10 0  44 10 0  46 10 0  48 10 0  50 10 0  52 10 0  54 10 0  56 10 0  58 10 0  60 10 0  62 10 0  64 10 0  66 10 0  68 10 0  70 10 0  72 10 0  74 10 0  76 10 0  78 10 0  80 10 0  82 10 0  84 10 0  86 10 0  88 10 0  90 10 0  92 10 0  94 10 0  96 10 0  98 10 0  100 10 0  102 10 0  104 10 0  106 10 0  108 10 0  110 10 0  112 10 0  114 10 0  116 10 0  118 10 0  120 10 0  122 10 0  124 10 0  126 10 0  128 10 0  130 10 0  132 10 0  134 10 0  136 10 0  138 10 0  140 10 0  142 10 0  144 10 0  146 10 0  148 10 0  150 10 0  152 10 0  154 10 0  156 10 0  158 10 0  160 10 0  162 10 0  164 10 0  166 10 0  168 10 0  170 10 0  172 10 0  174 10 0  176 10 0  178 10 0  180 10 0  182 10 0  184 10 0  186 10 0  188 10 0  190 10 0  192 10 0  194 10 0  196 10 0  198 10 0  200 10 0  0 12 0  2 12 0  4 12 0  6 12 0  8 12 0  10 12 0  12 12 0  14 12 0  16 12 0  18 12 0  20 12 0  22 12 0  24 12 0  26 12 0  28 12 0  30 12 0  32 12 0  34 12 0  36 12 0  38 12 0  40 12 0  42 12 0  44 12 0  46 12 0  48 12 0  50 12 0  52 12 0  54 12 0  56 12 0  58 12 0  60 12 0  62 12 0  64 12 0  66 12 0  68 12 0  70 12 0  72 12 0  74 12 0  76 12 0  78 12 0  80 12 0  82 12 0  84 12 0  86 12 0  88 12 0  90 12 0  92 12 0  94 12 0  96 12 0  98 12 0  100 12 0  102 12 0  104 12 0  106 12 0  108 12 0  110 12 0  112 12 0  114 12 0  116 12 0  118 12 0  120 12 0  122 12 0  124 12 0  126 12 0  128 12 0  130 12 0  132 12 0  134 12 0  136 12 0  138 12 0  140 12 0  142 12 0  144 12 0  146 12 0  148 12 0  150 12 0  152 12 0  154 12 0  156 12 0  158 12 0  160 12 0  162 12 0  164 12 0  166 12 0  168 12 0  170 12 0  172 12 0  174 12 0  176 12 0  178 12 0  180 12 0  182 12 0  184 12 0  186 12 0  188 12 0  190 12 0  192 12 0  194 12 0  196 12 0  198 12 0  200 12 0  0 14 0  2 14 0  4 14 0  6 14 0  8 14 0  10 14 0  12 14 0  14 14 0  16 14 0  18 14 0  20 14 0  22 14 0  24 14 0  26 14 0  28 14 0  30 14 0  32 14 0  34 14 0  36 14 0  38 14 0  40 14 0  42 14 0  44 14 0  46 14 0  48 14 0  50 14 0  52 14 0  54 14 0  56 14 0  58 14 0  60 14 0  62 14 0  64 14 0  66 14 0  68 14 0  70 14 0  72 14 0  74 14 0  76 14 0  78 14 0  80 14 0  82 14 0  84 14 0  86 14 0  88 14 0  90 14 0  92 14 0  94 14 0  96 14 0  98 14 0  100 14 0  102 14 0  104 14 0  106 14 0  108 14 0  110 14 0  112 14 0  114 14 0  116 14 0  118 14 0  120 14 0  122 14 0  124 14 0  126 14 0  128 14 0  130 14 0  132 14 0  134 14 0  136 14 0  138 14 0  140 14 0  142 14 0  144 14 0  146 14 0  148 14 0  150 14 0  152 14 0  154 14 0  156 14 0  158 14 0  160 14 0  162 14 0  164 14 0  166 14 0  168 14 0  170 14 0  172 14 0  174 14 0  176 14 0  178 14 0  180 14 0  182 14 0  184 14 0  186 14 0  188 14 0  190 14 0  192 14 0  194 14 0  196 14 0  198 14 0  200 14 0  0 16 0  2 16 0  4 16 0  6 16 0  8 16 0  10 16 0  12 16 0  14 16 0  16 16 0  18 16 0  20 16 0  22 16 0  24 16 0  26 16 0  28 16 0  30 16 0  32 16 0  34 16 0  36 16 0  38 16 0  40 16 0  42 16 0  44 16 0  46 16 0  48 16 0  50 16 0  52 16 0  54 16 0  56 16 0  58 16 0  60 16 0  62 16 0  64 16 0  66 16 0  68 16 0  70 16 0  72 16 0  74 16 0  76 16 0  78 16 0  80 16 0  82 16 0  84 16 0  86 16 0  88 16 0  90 16 0  92 16 0  94 16 0  96 16 0  98 16 0  100 16 0  102 16 0  104 16 0  106 16 0  108 16 0  110 16 0  112 16 0  114 16 0  116 16 0  118 16 0  120 16 0  122 16 0  124 16 0  126 16 0  128 16 0  130 16 0  132 16 0  134 16 0  136 16 0  138 16 0  140 16 0  142 16 0  144 16 0  146 16 0  148 16 0  150 16 0  152 16 0  154 16 0  156 16 0  158 16 0  160 16 0  162 16 0  164 16 0  166 16 0  168 16 0  170 16 0  172 16 0  174 16 0  176 16 0  178 16 0  180 16 0  182 16 0  184 16 0  186 16 0  188 16 0  190 16 0  192 16 0  194 16 0  196 16 0  198 16 0  200 16 0  0 18 0  2 18 0  4 18 0  6 18 0  8 18 0  10 18 0  12 18 0  14 18 0  16 18 0  18 18 0  20 18 0  22 18 0  24 18 0  26 18 0  28 18 0  30 18 0  32 18 0  34 18 0  36 18 0  38 18 0  40 18 0  42 18 0  44 18 0  46 18 0  48 18 0  50 18 0  52 18 0  54 18 0  56 18 0  58 18 0  60 18 0  62 18 0  64 18 0  66 18 0  68 18 0  70 18 0  72 18 0  74 18 0  76 18 0  78 18 0  80 18 0  82 18 0  84 18 0  86 18 0  88 18 0  90 18 0  92 18 0  94 18 0  96 18 0  98 18 0  100 18 0  102 18 0  104 18 0  106 18 0  108 18 0  110 18 0  112 18 0  114 18 0  116 18 0  118 18 0  120 18 0  122 18 0  124 18 0  126 18 0  128 18 0  130 18 0  132 18 0  134 18 0  136 18 0  138 18 0  140 18 0  142 18 0  144 18 0  146 18 0  148 18 0  150 18 0  152 18 0  154 18 0  156 18 0  158 18 0  160 18 0  162 18 0  164 18 0  166 18 0  168 18 0  170 18 0  172 18 0  174 18 0  176 18 0  178 18 0  180 18 0  182 18 0  184 18 0  186 18 0  188 18 0  190 18 0  192 18 0  194 18 0  196 18 0  198 18 0  200 18 0  0 20 0  2 20 0  4 20 0  6 20 0  8 20 0  10 20 0  12 20 0  14 20 0  16 20 0  18 20 0  20 20 0  22 20 0  24 20 0  26 20 0  28 20 0  30 20 0  32 20 0  34 20 0  36 20 0  38 20 0  40 20 0  42 20 0  44 20 0  46 20 0  48 20 0  50 20 0  52 20 0  54 20 0  56 20 0  58 20 0  60 20 0  62 20 0  64 20 0  66 20 0  68 20 0  70 20 0  72 20 0  74 20 0  76 20 0  78 20 0  80 20 0  82 20 0  84 20 0  86 20 0  88 20 0  90 20 0  92 20 0  94 20 0  96 20 0  98 20 0  100 20 0  102 20 0  104 20 0  106 20 0  108 20 0  110 20 0  112 20 0  114 20 0  116 20 0  118 20 0  120 20 0  122 20 0  124 20 0  126 20 0  128 20 0  130 20 0  132 20 0  134 20 0  136 20 0  138 20 0  140 20 0  142 20 0  144 20 0  146 20 0  148 20 0  150 20 0  152 20 0  154 20 0  156 20 0
[...]
<PointData  Scalars="f_271-4"> 
<DataArray  type="Float64"  Name="f_271-4"  format="ascii">7.5229490359393253e-12  7.3001905117653825e-12  6.6861364560109470e-12  5.8272993666236768e-12  4.9201840209648785e-12  4.1580346008835772e-12  3.6834371249882836e-12  3.5586754330237276e-12  3.7584737067662885e-12  4.1837434850614296e-12  4.6910717701020693e-12  5.1300843819236071e-12  5.3791597710020977e-12  5.3702726772773323e-12  5.0970804960241299e-12  4.6060781144336468e-12  3.9762318252703359e-12  3.2953181676132685e-12  2.6403538610356588e-12  2.0662203182791767e-12  1.6029297867412100e-12  1.2594212589939176e-12  1.0306774012572151e-12  9.0499865473276841e-13  8.6904945490067547e-13  9.0953331423969326e-13  1.0118108129751034e-12  1.1570833348480493e-12  1.3204741085835358e-12  1.4720876424391337e-12  1.5818709007477429e-12  1.6272389495724268e-12  1.6007721111526866e-12  1.5147361398913350e-12  1.4001948183592281e-12  1.3007115776140046e-12  1.2629079350058561e-12  1.3271157845028323e-12  1.5204209049052077e-12  1.8522789335753035e-12  2.3113495673870517e-12  2.8627255460305272e-12  3.4470967044481725e-12  3.9854048098869335e-12  4.3917198722526461e-12  4.5929647419429136e-12  4.5492284937184546e-12  4.2665106535302515e-12  3.7970950724248923e-12  3.2306954706847253e-12  2.6871195017167306e-12  2.3025719375762160e-12  2.0757223897314664e-12  1.4205364036929277e-12  -1.2968216382563329e-12  5.3668833964034406e-11  -9.8515504096183814e-10  1.7849873353614359e-08  -3.2395306016941582e-07  5.9071920889936010e-06  -1.0992015747381912e-04  2.3735982043743774e-03  2.4304881617836699e-01  8.1111873784252353e-01  9.7111677854141265e-01  9.9498563992983879e-01  9.9902556930737330e-01  9.9970623201031739e-01  9.9962037997976894e-01  9.9871194228044868e-01  9.9461957010794766e-01  9.7530660578513595e-01  8.7294945399308543e-01  4.6122503080124222e-01  9.1897085511251100e-02  1.2689339875929025e-02  1.7239710763017784e-03  2.3600090705122069e-04  3.2581067304832137e-05  4.5295856378835741e-06  6.3322654750395420e-07  8.8919431024734492e-08  1.2533231533367033e-08  1.7733603176161914e-09  2.5329636255502966e-10  3.8461423542077301e-11  8.5247441945024287e-12  4.6935094985377987e-12  4.1552597469184716e-12  3.2723479825463436e-12  1.4145355683827480e-12  1.3775181333016451e-13  3.6875470860381167e-16  7.4777017829887467e-17  -1.8041649415801162e-18  1.1223626482832195e-19  -5.8543335897075104e-21  7.1289029845279954e-22  -9.7371323885747540e-23  -1.8366584888343234e-23  -2.9339669292413466e-23  7.3177122201737747e-12  7.1024177817303452e-12  6.5087947291688215e-12  5.6781076484312429e-12  4.7999659220411841e-12  4.0610672089451261e-12  3.5994787972541792e-12  3.4759343040865963e-12  3.6666763205793055e-12  4.0765799254064603e-12  4.5675174577497494e-12  4.9943839166179004e-12  5.2395876642326342e-12  5.2370972015612016e-12  4.9803387653708287e-12  4.5137396663939890e-12  3.9131054991712324e-12  3.2627629832665129e-12  2.6366251527892339e-12  2.0871865231936740e-12  1.6429155557328103e-12  1.3120075764336292e-12  1.0893671568001302e-12  9.6371655198572409e-13  9.2248974190951414e-13  9.5340023304177730e-13  1.0430088754804980e-12  1.1738980971597574e-12  1.3227387072687044e-12  1.4612734169455360e-12  1.5610039131956290e-12  1.6005584378546205e-12  1.5731193598373689e-12  1.4907657534359767e-12  1.3835827365870402e-12  1.2935480859482112e-12  1.2653993431596629e-12  1.3376134109689278e-12  1.5357139341978025e-12  1.8680725752517024e-12  2.3228901566069069e-12  2.8655670876590568e-12  3.4379662057635945e-12  3.9630164259057892e-12  4.3572895167959670e-12  4.5501911225026378e-12  4.5036807230134232e-12  4.2246850996447149e-12  3.7660769206181851e-12  3.2220431967422409e-12  2.7409836844006144e-12  2.5900129831829249e-12  3.1243590722001347e-12  3.5782158246494690e-12  -6.1377629531033700e-14  7.0128929720691788e-11  -1.3164035511615287e-09  2.4192488861455469e-08  -4.4156627193201113e-07  8.0384140221581252e-06  -1.4887450966501319e-04  3.2804260892547875e-03  2.4708012025506368e-01  8.0853233222531473e-01  9.6970974777084995e-01  9.9448188991949937e-01  9.9882426818581738e-01  9.9957637041256164e-01  9.9943911566619936e-01  9.9827776541066982e-01  9.9329642279782748e-01  9.7061854085319543e-01  8.5324949766052682e-01  4.1796276742404104e-01  8.0286695904618122e-02  1.1348793173835669e-02  1.5707432684338798e-03  2.1777058278016492e-04  3.0349526111860735e-05  4.2504029729688924e-06  5.9771157228808295e-07  8.4341459579608153e-08  1.1936723831947955e-08  1.6949232567060276e-09  2.4287426276164087e-10  3.7014529155431806e-11  8.2479118303035214e-12  4.5589253985823667e-12  4.0556997231152488e-12  3.2584360745760119e-12  1.5239322283938114e-12  1.7990676155107453e-13  1.8305797035032929e-15  1.0293454764130625e-16  -4.1670682966472141e-19  1.4993326275893598e-20  1.6460545439255592e-20  -2.7859818753299554e-21  1.0864162506225387e-22  1.1063700947579802e-22  1.8695225125906837e-22  6.7374303345234052e-12  6.5432305083400046e-12  6.0074249681922134e-12  5.2566302893077460e-12  4.4611477963166408e-12  3.7892355091466703e-12  3.3660745910388566e-12  3.2477401163974102e-12  3.4144036264272878e-12  3.7818014887163129e-12  4.2265287373521046e-12  4.6183552902047871e-12  4.8512789416270344e-12  4.8652768429112187e-12  4.6535738157275135e-12  4.2551632909000937e-12  3.7371768839916547e-12  3.1742340564767416e-12  2.6312951805507482e-12  2.1537525809126685e-12  1.7652689975981939e-12  1.4715154965323781e-12  1.2668709837954046e-12  1.1411263101795079e-12  1.0839634541815423e-12  1.0861863698587756e-12  1.1380784354639089e-12  1.2264687089493539e-12  1.3326863036271473e-12  1.4332804966895259e-12  1.5041957835892595e-12  1.5274174290437297e-12  1.4976655277065732e-12  1.4262764035921600e-12  1.3403465456518509e-12  1.2771807706253782e-12  1.2760597543171701e-12  1.3701597796179270e-12  1.5806088860077103e-12  1.9128057724326444e-12  2.3538044704628643e-12  2.8700687706015004e-12  3.4069937580898898e-12  3.8933382887355056e-12  4.2529246242497390e-12  4.4222938127139667e-12  4.3687337659810004e-12  4.1017700279276610e-12  3.6759894424103477e-12  3.1996275908027427e-12  2.9168209399767409e-12  3.5993794586322651e-12  7.6870040935286726e-12  1.8684766353396989e-11  2.3998327456312700e-11  1.2327670072927732e-10  -2.6223226052353300e-09  4.7394061314778742e-08  -8.3194380319076124e-07  1.4481699967566498e-05  -2.5858683999691127e-04  6.2539032292609608e-03  2.4315466705929992e-01  7.8655127818884008e-01  9.6227834683833358e-01  9.9205067575033001e-01  9.9781977391993482e-01  9.9890146637070987e-01  9.9854163939129170e-01  9.9630396594473680e-01  9.8762887758201912e-01  9.5126448551843301e-01  7.7637242314996979e-01  3.0209978237294749e-01  5.4214961914687519e-02  8.1829077031844895e-03  1.1911394163424019e-03  1.7132193612273520e-04  2.4546916715809537e-05  3.5132200082449478e-06  5.0278663862623708e-07  7.1983378786988725e-08  1.0313087296324377e-08  1.4799252863436770e-09  2.1413808792286151e-10  3.3006673234884387e-11  7.4788216767221129e-12  4.1819973446950910e-12  3.7655749573595957e-12  3.1745378503498161e-12  1.7924387735130480e-12  3.5507181803255230e-13  1.2796188555217043e-14  3.8309430469311752e-16  1.2515939873688745e-18  1.9790768497622786e-18  -1.9008089332694290e-21  4.4004068216423591e-20  1.1277085101016384e-20  3.5652270428626616e-21  1.3639296778085920e-21  5.8790112814044987e-12  5.7160078714547249e-12  5.2659404904477651e-12  4.6343237865343100e-12  3.9634590981488716e-12  3.3945364690421304e-12  3.0333417464378879e-12  2.9282203638810847e-12  3.0640405134271707e-12  3.3715396617685197e-12  3.7483989938647189e-12  4.0863030613409958e-12  4.2969762930640954e-12  4.3304161012982622e-12  4.1809421713938712e-12  3.8807938119607924e-12  3.4851067930857956e-12  3.0543136718172346e-12  2.6396049523606364e-12  2.2747809597725532e-12  1.9750235472939960e-12  1.7409477290386937e-12  1.5651948504785653e-12  1.4387453574622338e-12  1.3548345284131025e-12  1.3095768100346404e-12  1.2997926367734319e-12  1.3196575191524951e-12  1.3582643343182023e-12  1.3998045438196412e-12  1.4269284770209834e-12  1.4263498848564311e-12  1.3945456123800817e-12  1.3410820202594282e-12  1.2879458821738707e-12  1.2649432184533636e-12  1.3028860689675266e-12  1.4269499607254703e-12  1.6518459349700931e-12  1.9788828384848807e-12  2.3939060067546769e-12  2.8655625985411123e-12  3.3451354616734360e-12  3.7706392902363601e-12  4.0771353871184370e-12  4.2120438778807289e-12  4.1506370538799311e-12  3.9061978492149911e-12  3.5358702804232810e-12  3.1717251658581112e-12  3.2348681311899832e-12  5.5832910861329996e-12  1.8667810108989590e-11  7.4160280506692895e-11  2.2433544325214777e-10  5.2757108151430995e-10  -4.7282668342347102e-09  7.3280034049347222e-08  -1.1272425871219577e-06  1.7684398260436286e-05  -2.8710827106335753e-04  1.1180313647026610e-02  1.9397286153255597e-01  6.9410708993397319e-01  9.3512633244941390e-01  9.8317898265587156e-01  9.9388662460604482e-01  9.9606233883127249e-01  9.9497327775488453e-01  9.8932957633628227e-01  9.6930008076583507e-01  8.9141363681650476e-01  5.8519733625530723e-01  1.6431392819114057e-01  2.9445602712688364e-02  4.8420653158864919e-03  7.5784141801772036e-04  1.1535003813291375e-04  1.7273721774114840e-05  2.5608572614447857e-06  3.7716672674507677e-07  5.5303655961447580e-08  8.0852577642260966e-09  1.1807785376992555e-09  1.7368333648526809e-10  2.7313318063653555e-11  6.3806059926778585e-12  3.6364886096620043e-12  3.3197696157082607e-12  2.9517753358842007e-12  2.0314023219692580e-12  7.4683510250560386e-13  8.2922725148257973e-14  2.6491681849781039e-15  2.2482651642166223e-16  5.2631529973918206e-18  1.2170018398130789e-19  -7.1990252891758895e-19  -4.2534349671064966e-19  -2.4429329240918917e-19  -1.8887211755167316e-19  4.8760201418682848e-12  4.7495024730735894e-12  4.4001407563769529e-12  3.9098129069685503e-12  3.3891214307185423e-12  2.9480139313680268e-12  2.6690088416278880e-12  2.5898740766428793e-12  2.6988830281307890e-12  2.9422812047810556e-12  3.2410387005401071e-12  3.5122130122744997e-12  3.6892728188475785e-12  3.7360106845632127e-12  3.6506444774565298e-12  3.4599838236481249e-12  3.2068028704506723e-12  2.9353753841916985e-12  2.6798808928299748e-12  2.4585530755807095e-12  2.2740543663848583e-12  2.1185468581991858e-12  1.9807806681222044e-12  1.8523651028152920e-12  1.7311283475229662e-12  1.6208172441933130e-12  1.5278680585817593e-12  1.4570637174599397e-12  1.4082053611643518e-12  1.3753879377880227e-12  1.3493118701371440e-12  1.3217328024222902e-12  1.2901761031258091e-12  1.2608565399409235e-12  1.2484846672324942e-12  1.2730052957900202e-12  1.3546111105554323e-12  1.5088714512090352e-12  1.7432218117920848e-12  2.0548430609997075e-12  2.4291489336290736e-12  2.8385191161758228e-12  3.2423487435063154e-12  3.5905931132472504e-12  3.8323178770087499e-12  3.9281717432122771e-12  3.8628887533924192e-12  3.6539345766724847e-12  3.3611236988832515e-12  3.1466203978956206e-12  3.6747742191002111e-12  8.4746234119678438e-12  3.7000599978704047e-11  1.9099926543628822e-10  9.3573223006346196e-10  3.6078306294907066e-09  1.3474984714722217e-08  -9.9981647968601279e-10  8.0290912516974819e-07  -1.8950420561487516e-06  3.3371012630078805e-04  1.3033443275425039e-02  1.0709337833938587e-01  4.5839189536021224e-01  8.3591974618961784e-01  9.5008088524561496e-01  9.7733932657230393e-01  9.8346796383728541e-01  9.7974062619625113e-01  9.6229173545581603e-01  9.0470164690263244e-01  6.9860848715586454e-01  2.8956825079514514e-01  6.7205510837855531e-02  1.3326938160160538e-02  2.4028305377884868e-03  4.0942202773208898e-04  6.6895421435423372e-05  1.0613542031862817e-05  1.6495574857036882e-06  2.5262912825604559e-07  3.8277716566326443e-08  5.7547825362003860e-09  8.6128154186763277e-10  1.2971865950128637e-10  2.1045186081953243e-11  5.1643679307919018e-12  3.0233830146645440e-12  2.7874902600646571e-12  2.5869812652451789e-12  2.0567711436314434e-12  1.1842183670162943e-12  3.5301355699643035e-13  4.1220756090113749e-14  2.5028026712579620e-15  2.3102746999920344e-16  4.7142103312074380e-17  2.4940620985173081e-17  1.5134840240909865e-17  1.0072858694511226e-17  8.5378127252374224e-18  3.8668441810555252e-12  3.7771771637308826e-12  3.5301562835131125e-12  3.1853191882226307e-12  2.8228268421475742e-12  2.5217573598246205e-12  2.3403615811515290e-12  2.3035185216840860e-12  2.3998460485354669e-12  2.5881410507295060e-12  2.8106912628284678e-12  3.0095958149214913e-12  3.1416030988194105e-12  3.1874081663361097e-12  3.1530490477551546e-12  3.0636317833613268e-12  2.9521239744802454e-12  2.8473530414173554e-12  2.7651608567345503e-12  2.7051731067660208e-12  2.6535424018511831e-12  2.5900505512035625e-12  2.4966732909591675e-12  2.3644750447647129e-12  2.1965750078557996e-12  2.0065731499187390e-12  1.8135697089376358e-12  1.6360415371030769e-12  1.4869645097381558e-12  1.3717803599819649e-12  1.2895323643492435e-12  1.2362640022433196e-12  1.2090148139796818e-12  1.2086928542394291e-12  1.2407431271262637e-12  1.3135783762869886e-12  1.4356872219890100e-12  1.6126833895380429e-12  1.8451337967137322e-12  2.1271624508858044e-12  2.4453115727575343e-12  2.7775179606919250e-12  3.0931334596411702e-12  3.3556811288367859e-12  3.5294460197303585e-12  3.5889954421866098e-12  3.5286775381536286e-12  3.3697814032938423e-12  3.1737371212628615e-12  3.1304594872028322e-12  4.1516328371350213e-12  1.1608371055864467e-11  5.8388699658399743e-11  3.4548450146278389e-10  2.0822546533859300e-09  1.2489655652467662e-08  7.2650533569035073e-08  4.7710098085075493e-07  3.8697678504855301e-06  5.5475877223847375e-05  9.4049522182912404e-04  8.0434122860546173e-03  4.3225617262048890e-02  1.8492119288566511e-01  5.2890678425276838e-01  8.0262491405857916e-01  8.9906207819796347e-01  9.2184345748201402e-01  9.0684827682605063e-01  8.3978799936918591e-01  6.5193664633227177e-01  3.1708560516141820e-01  9.3697714052029452e-02  2.3233096340131133e-02  5.0812379279654724e-03  1.0201158679671411e-03  1.9042981792666733e-04  3.3704231743631115e-05  5.7234509160172538e-06  9.4191324070328722e-07  1.5138391972886552e-07  2.3897455395396484e-08  3.7219828128087363e-09  5.7485959025700890e-10  8.9397268780637818e-11  1.5202833544972431e-11  4.0261204674530934e-12  2.4427296541637120e-12  2.2565780973108598e-12  2.1520923207692734e-12  1.8746161749371251e-12  1.3857486426032218e-12  7.7414301654221213e-13  2.7394891264124471e-13  5.8611819682508946e-14  9.8354140022446511e-15  1.4077034831634266e-15  -6.2596827966868547e-18  -1.8958534114064255e-16  -1.7690907436526404e-16  -1.6299991510811383e-16  2.9657338083357005e-12  2.9092505544926965e-12  2.7551767844488924e-12  2.5448785691999694e-12  2.3331518005010265e-12  2.1722599440185292e-12  2.0977656310120260e-12  2.1202306491730804e-12  2.2246243025683691e-12  2.3769214709677724e-12  2.5355201743568261e-12  2.6639967048864439e-12  2.7414522535204555e-12  2.7674142539113755e-12  2.7599093863528860e-12  2.7475041337151658e-12  2.7580613533010973e-12  2.8079764269640179e-12  2.8954213086000136e-12  2.9997842763412972e-12  3.0874799257113721e-12  3.1221936639905675e-12  3.0760886120352284e-12  2.9381702686374664e-12  2.7171318514607763e-12  2.4381757128636056e-12  2.1355395538637240e-12  1.8437456944664053e-12  1.5905022100486902e-12  1.3930183476451108e-12  1.2579707866160794e-12  1.1841321175928867e-12  1.1660848013699835e-12  1.1975150300236453e-12  1.2731404147909312e-12  1.3890944083871843e-12  1.5422352472773673e-12  1.7290826180087901e-12  1.9448398085141082e-12  2.1824869136166051e-12  2.4317037966613686e-12  2.6777320883839145e-12  2.9010336097169240e-12  3.0790551780455753e-12  3.1908818372130379e-12  3.2240674824975467e-12  3.1815156114896436e-12  3.0873167244339014e-12  3.0022325428610279e-12  3.1308005951378646e-12  4.5475795345177744e-12  1.3933765685968041e-11  7.4376025423073627e-11  4.6763213464126000e-10  3.0699881100030822e-09  2.0693776589329795e-08  1.4620217293545931e-07  1.1072059887567095e-06  9.4669480584517892e-06  8.6532860337394253e-05  6.2005926180273320e-04  3.2956018008293651e-03  1.4333425779686559e-02  5.2492745307430123e-02  1.6278936730587193e-01  3.6762652599456891e-01  5.5677635271191495e-01  6.2817549981455534e-01  5.7986552017577386e-01  4.2079484931879235e-01  2.1831959045891525e-01  8.1463242377071240e-02  2.5566100490543503e-02  6.9266815898608664e-03  1.6932879944288727e-03  3.7596984423600741e-04  7.7325366784569536e-05  1.4900823570450108e-05  2.7268789361491531e-06  4.7882890975338130e-07  8.1382315548759518e-08  1.3482610069300577e-08  2.1904507232306067e-09  3.5168333213206001e-10  5.7096038780769004e-11  1.0436890835079208e-11  3.0991723147969365e-12  1.9676442904722255e-12  1.8033575257467806e-12  1.7399068190088366e-12  1.6035405673554454e-12  1.3575896746955576e-12  1.0251779081844591e-12  6.6814279047958384e-13  3.6647681110451864e-13  1.7326053140110505e-13  8.0341890875822687e-14  4.2154393222401113e-14  2.5986598164109421e-14  1.8969503963753146e-14  1.6961760676961506e-14  2.2442249582873795e-12  2.2147004201197512e-12  2.1370294564756169e-12  2.0400338351533814e-12  1.9602968747541967e-12  1.9295594804021019e-12  1.9641783482735542e-12  2.0601163961938123e-12  2.1948412940479455e-12  2.3352439034997833e-12  2.4489183888277282e-12  2.5152195841453969e-12  2.5325868072004747e-12  2.5197067860082764e-12  2.5099452327583950e-12  2.5405673311985757e-12  2.6399204675091366e-12  2.8164688057120999e-12  3.0531858753866846e-12  3.3094241912797665e-12  3.5302346778936178e-12  3.6606691772915435e-12  3.6606756327572473e-12  3.5157388775634823e-12  3.2399129592408670e-12  2.8708054452493609e-12  2.4590135205632674e-12  2.0560720272595453e-12  1.7046389953738146e-12  1.4329814534651636e-12  1.2539142797549970e-12  1.1670321622990845e-12  1.1626151361276524e-12  1.2257824169913220e-12  1.3399781703310936e-12  1.4894186490590275e-12  1.6605324653725260e-12  1.8425881022102919e-12  2.0276389708800063e-12  2.2097843258089257e-12  2.3837850792474172e-12  2.5434209959470923e-12  2.6804659212831094e-12  2.7853534149820338e-12  2.8501149901857996e-12  2.8730599258967359e-12  2.8636810810288308e-12  2.8473969396356903e-12  2.8812536556615579e-12  3.1638993252271991e-12  4.7830661584817698e-12  1.4640789846107462e-11  7.7913891478221465e-11  4.9459236198394629e-10  3.2894685821266897e-09  2.2457537133098495e-08  1.5719485135885031e-07  1.1276332276452201e-06  7.9897653028700594e-06  4.9398581762750783e-05  2.5122329673631067e-04  1.0785449282890880e-03  3.9828331969824623e-03  1.2761578623867840e-02  3.4295986321549878e-02  7.6183583958530532e-02  1.3081033815336487e-01  1.6038559206101338e-01  1.3964082333307437e-01  8.8157615583554297e-02  4.3044092328983721e-02  1.7580998153437874e-02  6.0847673631679354e-03  1.8497504059574598e-03  4.9983271956103843e-04  1.2292364400475709e-04  2.7770620638264712e-05  5.8425422929054757e-06  1.1568178335928478e-06  2.1788723879416482e-07  3.9395131544156374e-08  6.8919202892759334e-09  1.1755821502420745e-09  1.9785157956949871e-10  3.4105849217014285e-11  6.9814744055428115e-12  2.4360761116421883e-12  1.6307137716650446e-12  1.4700733216605169e-12  1.4161275057935584e-12  1.3500011791699733e-12  1.2393325735954314e-12  1.0889500339680874e-12  9.2509363703739493e-13  7.7512730697225036e-13  6.5131261071099137e-13  5.5380514241706858e-13  4.7926861080419749e-13  4.2448492760666284e-13  3.8974690315124305e-13  3.7773390192783643e-13  1.7259022881880118e-12  1.7161309928021300e-12  1.6953618754992857e-12  1.6855355212676009e-12  1.7124478332679647e-12  1.7942705161893294e-12  1.9326841959481662e-12  2.1100159201549495e-12  2.2935039628643122e-12  2.4453649861121905e-12  2.5354502934740000e-12  2.5523969696129154e-12  2.5095177156043259e-12  2.4431784110493348e-12  2.4036732585134304e-12  2.4409049133604321e-12  2.5887863695655852e-12  2.8528024607525987e-12  3.2045736880500138e-12  3.5856709662969757e-12  3.920