<?xml version="1.0"?>
<VTKFile type="UnstructuredGrid"  version="0.1"  >
<UnstructuredGrid>
<Piece  NumberOfPoints="20201" NumberOfCells="40000">
<Points>
<DataArray  type="Float64"  NumberOfComponents="3"  format="ascii">0 0 0  2 0 0  4 0 0  6 0 0  8 0 0  10 0 0  12 0 0  14 0 0  16 0 0  18 0 0  20 0 0  22 0 0  24 0 0  26 0 0  28 0 0  30 0 0  32 0 0  34 0 0  36 0 0  38 0 0  40 0 0  42 0 0  44 0 0  46 0 0  48 0 0  50 0 0  52 0 0  54 0 0  56 0 0  58 0 0  60 0 0  62 0 0  64 0 0  66 0 0  68 0 0  70 0 0  72 0 0  74 0 0  76 0 0  78 0 0  80 0 0  82 0 0  84 0 0  86 0 0  88 0 0  90 0 0  92 0 0  94 0 0  96 0 0  98 0 0  100 0 0  102 0 0  104 0 0  106 0 0  108 0 0  110 0 0  112 0 0  114 0 0  116 0 0  118 0 0  120 0 0  122 0 0  124 0 0  126 0 0  128 0 0  130 0 0  132 0 0  134 0 0  136 0 0  138 0 0  140 0 0  142 0 0  144 0 0  146 0 0  148 0 0  150 0 0  152 0 0  154 0 0  156 0 0  158 0 0  160 0 0  162 0 0  164 0 0  166 0 0  168 0 0  170 0 0  172 0 0  174 0 0  176 0 0  178 0 0  180 0 0  182 0 0  184 0 0  186 0 0  188 0 0  190 0 0  192 0 0  194 0 0  196 0 0  198 0 0  200 0 0  0 2 0  2 2 0  4 2 0  6 2 0  8 2 0  10 2 0  12 2 0  14 2 0  16 2 0  18 2 0  20 2 0  22 2 0  24 2 0  26 2 0  28 2 0  30 2 0  32 2 0  34 2 0  36 2 0  38 2 0  40 2 0  42 2 0  44 2 0  46 2 0  48 2 0  50 2 0  52 2 0  54 2 0  56 2 0  58 2 0  60 2 0  62 2 0  64 2 0  66 2 0  68 2 0  70 2 0  72 2 0  74 2 0  76 2 0  78 2 0  80 2 0  82 2 0  84 2 0  86 2 0  88 2 0  90 2 0  92 2 0  94 2 0  96 2 0  98 2 0  100 2 0  102 2 0  104 2 0  106 2 0  108 2 0  110 2 0  112 2 0  114 2 0  116 2 0  118 2 0  120 2 0  122 2 0  124 2 0  126 2 0  128 2 0  130 2 0  132 2 0  134 2 0  136 2 0  138 2 0  140 2 0  142 2 0  144 2 0  146 2 0  148 2 0  150 2 0  152 2 0  154 2 0  156 2 0  158 2 0  160 2 0  162 2 0  164 2 0  166 2 0  168 2 0  170 2 0  172 2 0  174 2 0  176 2 0  178 2 0  180 2 0  182 2 0  184 2 0  186 2 0  188 2 0  190 2 0  192 2 0  194 2 0  196 2 0  198 2 0  200 2 0  0 4 0  2 4 0  4 4 0  6 4 0  8 4 0  10 4 0  12 4 0  14 4 0  16 4 0  18 4 0  20 4 0  22 4 0  24 4 0  26 4 0  28 4 0  30 4 0  32 4 0  34 4 0  36 4 0  38 4 0  40 4 0  42 4 0  44 4 0  46 4 0  48 4 0  50 4 0  52 4 0  54 4 0  56 4 0  58 4 0  60 4 0  62 4 0  64 4 0  66 4 0  68 4 0  70 4 0  72 4 0  74 4 0  76 4 0  78 4 0  80 4 0  82 4 0  84 4 0  86 4 0  88 4 0  90 4 0  92 4 0  94 4 0  96 4 0  98 4 0  100 4 0  102 4 0  104 4 0  106 4 0  108 4 0  110 4 0  112 4 0  114 4 0  116 4 0  118 4 0  120 4 0  122 4 0  124 4 0  126 4 0  128 4 0  130 4 0  132 4 0  134 4 0  136 4 0  138 4 0  140 4 0  142 4 0  144 4 0  146 4 0  148 4 0  150 4 0  152 4 0  154 4 0  156 4 0  158 4 0  160 4 0  162 4 0  164 4 0  166 4 0  168 4 0  170 4 0  172 4 0  174 4 0  176 4 0  178 4 0  180 4 0  182 4 0  184 4 0  186 4 0  188 4 0  190 4 0  192 4 0  194 4 0  196 4 0  198 4 0  200 4 0  0 6 0  2 6 0  4 6 0  6 6 0  8 6 0  10 6 0  12 6 0  14 6 0  16 6 0  18 6 0  20 6 0  22 6 0  24 6 0  26 6 0  28 6 0  30 6 0  32 6 0  34 6 0  36 6 0  38 6 0  40 6 0  42 6 0  44 6 0  46 6 0  48 6 0  50 6 0  52 6 0  54 6 0  56 6 0  58 6 0  60 6 0  62 6 0  64 6 0  66 6 0  68 6 0  70 6 0  72 6 0  74 6 0  76 6 0  78 6 0  80 6 0  82 6 0  84 6 0  86 6 0  88 6 0  90 6 0  92 6 0  94 6 0  96 6 0  98 6 0  100 6 0  102 6 0  104 6 0  106 6 0  108 6 0  110 6 0  112 6 0  114 6 0  116 6 0  118 6 0  120 6 0  122 6 0  124 6 0  126 6 0  128 6 0  130 6 0  132 6 0  134 6 0  136 6 0  138 6 0  140 6 0  142 6 0  144 6 0  146 6 0  148 6 0  150 6 0  152 6 0  154 6 0  156 6 0  158 6 0  160 6 0  162 6 0  164 6 0  166 6 0  168 6 0  170 6 0  172 6 0  174 6 0  176 6 0  178 6 0  180 6 0  182 6 0  184 6 0  186 6 0  188 6 0  190 6 0  192 6 0  194 6 0  196 6 0  198 6 0  200 6 0  0 8 0  2 8 0  4 8 0  6 8 0  8 8 0  10 8 0  12 8 0  14 8 0  16 8 0  18 8 0  20 8 0  22 8 0  24 8 0  26 8 0  28 8 0  30 8 0  32 8 0  34 8 0  36 8 0  38 8 0  40 8 0  42 8 0  44 8 0  46 8 0  48 8 0  50 8 0  52 8 0  54 8 0  56 8 0  58 8 0  60 8 0  62 8 0  64 8 0  66 8 0  68 8 0  70 8 0  72 8 0  74 8 0  76 8 0  78 8 0  80 8 0  82 8 0  84 8 0  86 8 0  88 8 0  90 8 0  92 8 0  94 8 0  96 8 0  98 8 0  100 8 0  102 8 0  104 8 0  106 8 0  108 8 0  110 8 0  112 8 0  114 8 0  116 8 0  118 8 0  120 8 0  122 8 0  124 8 0  126 8 0  128 8 0  130 8 0  132 8 0  134 8 0  136 8 0  138 8 0  140 8 0  142 8 0  144 8 0  146 8 0  148 8 0  150 8 0  152 8 0  154 8 0  156 8 0  158 8 0  160 8 0  162 8 0  164 8 0  166 8 0  168 8 0  170 8 0  172 8 0  174 8 0  176 8 0  178 8 0  180 8 0  182 8 0  184 8 0  186 8 0  188 8 0  190 8 0  192 8 0  194 8 0  196 8 0  198 8 0  200 8 0  0 10 0  2 10 0  4 10 0  6 10 0  8 10 0  10 10 0  12 10 0  14 10 0  16 10 0  18 10 0  20 10 0  22 10 0  24 10 0  26 10 0  28 10 0  30 10 0  32 10 0  34 10 0  36 10 0  38 10 0  40 10 0  42 10 0  44 10 0  46 10 0  48 10 0  50 10 0  52 10 0  54 10 0  56 10 0  58 10 0  60 10 0  62 10 0  64 10 0  66 10 0  68 10 0  70 10 0  72 10 0  74 10 0  76 10 0  78 10 0  80 10 0  82 10 0  84 10 0  86 10 0  88 10 0  90 10 0  92 10 0  94 10 0  96 10 0  98 10 0  100 10 0  102 10 0  104 10 0  106 10 0  108 10 0  110 10 0  112 10 0  114 10 0  116 10 0  118 10 0  120 10 0  122 10 0  124 10 0  126 10 0  128 10 0  130 10 0  132 10 0  134 10 0  136 10 0  138 10 0  140 10 0  142 10 0  144 10 0  146 10 0  148 10 0  150 10 0  152 10 0  154 10 0  156 10 0  158 10 0  160 10 0  162 10 0  164 10 0  166 10 0  168 10 0  170 10 0  172 10 0  174 10 0  176 10 0  178 10 0  180 10 0  182 10 0  184 10 0  186 10 0  188 10 0  190 10 0  192 10 0  194 10 0  196 10 0  198 10 0  200 10 0  0 12 0  2 12 0  4 12 0  6 12 0  8 12 0  10 12 0  12 12 0  14 12 0  16 12 0  18 12 0  20 12 0  22 12 0  24 12 0  26 12 0  28 12 0  30 12 0  32 12 0  34 12 0  36 12 0  38 12 0  40 12 0  42 12 0  44 12 0  46 12 0  48 12 0  50 12 0  52 12 0  54 12 0  56 12 0  58 12 0  60 12 0  62 12 0  64 12 0  66 12 0  68 12 0  70 12 0  72 12 0  74 12 0  76 12 0  78 12 0  80 12 0  82 12 0  84 12 0  86 12 0  88 12 0  90 12 0  92 12 0  94 12 0  96 12 0  98 12 0  100 12 0  102 12 0  104 12 0  106 12 0  108 12 0  110 12 0  112 12 0  114 12 0  116 12 0  118 12 0  120 12 0  122 12 0  124 12 0  126 12 0  128 12 0  130 12 0  132 12 0  134 12 0  136 12 0  138 12 0  140 12 0  142 12 0  144 12 0  146 12 0  148 12 0  150 12 0  152 12 0  154 12 0  156 12 0  158 12 0  160 12 0  162 12 0  164 12 0  166 12 0  168 12 0  170 12 0  172 12 0  174 12 0  176 12 0  178 12 0  180 12 0  182 12 0  184 12 0  186 12 0  188 12 0  190 12 0  192 12 0  194 12 0  196 12 0  198 12 0  200 12 0  0 14 0  2 14 0  4 14 0  6 14 0  8 14 0  10 14 0  12 14 0  14 14 0  16 14 0  18 14 0  20 14 0  22 14 0  24 14 0  26 14 0  28 14 0  30 14 0  32 14 0  34 14 0  36 14 0  38 14 0  40 14 0  42 14 0  44 14 0  46 14 0  48 14 0  50 14 0  52 14 0  54 14 0  56 14 0  58 14 0  60 14 0  62 14 0  64 14 0  66 14 0  68 14 0  70 14 0  72 14 0  74 14 0  76 14 0  78 14 0  80 14 0  82 14 0  84 14 0  86 14 0  88 14 0  90 14 0  92 14 0  94 14 0  96 14 0  98 14 0  100 14 0  102 14 0  104 14 0  106 14 0  108 14 0  110 14 0  112 14 0  114 14 0  116 14 0  118 14 0  120 14 0  122 14 0  124 14 0  126 14 0  128 14 0  130 14 0  132 14 0  134 14 0  136 14 0  138 14 0  140 14 0  142 14 0  144 14 0  146 14 0  148 14 0  150 14 0  152 14 0  154 14 0  156 14 0  158 14 0  160 14 0  162 14 0  164 14 0  166 14 0  168 14 0  170 14 0  172 14 0  174 14 0  176 14 0  178 14 0  180 14 0  182 14 0  184 14 0  186 14 0  188 14 0  190 14 0  192 14 0  194 14 0  196 14 0  198 14 0  200 14 0  0 16 0  2 16 0  4 16 0  6 16 0  8 16 0  10 16 0  12 16 0  14 16 0  16 16 0  18 16 0  20 16 0  22 16 0  24 16 0  26 16 0  28 16 0  30 16 0  32 16 0  34 16 0  36 16 0  38 16 0  40 16 0  42 16 0  44 16 0  46 16 0  48 16 0  50 16 0  52 16 0  54 16 0  56 16 0  58 16 0  60 16 0  62 16 0  64 16 0  66 16 0  68 16 0  70 16 0  72 16 0  74 16 0  76 16 0  78 16 0  80 16 0  82 16 0  84 16 0  86 16 0  88 16 0  90 16 0  92 16 0  94 16 0  96 16 0  98 16 0  100 16 0  102 16 0  104 16 0  106 16 0  108 16 0  110 16 0  112 16 0  114 16 0  116 16 0  118 16 0  120 16 0  122 16 0  124 16 0  126 16 0  128 16 0  130 16 0  132 16 0  134 16 0  136 16 0  138 16 0  140 16 0  142 16 0  144 16 0  146 16 0  148 16 0  150 16 0  152 16 0  154 16 0  156 16 0  158 16 0  160 16 0  162 16 0  164 16 0  166 16 0  168 16 0  170 16 0  172 16 0  174 16 0  176 16 0  178 16 0  180 16 0  182 16 0  184 16 0  186 16 0  188 16 0  190 16 0  192 16 0  194 16 0  196 16 0  198 16 0  200 16 0  0 18 0  2 18 0  4 18 0  6 18 0  8 18 0  10 18 0  12 18 0  14 18 0  16 18 0  18 18 0  20 18 0  22 18 0  24 18 0  26 18 0  28 18 0  30 18 0  32 18 0  34 18 0  36 18 0  38 18 0  40 18 0  42 18 0  44 18 0  46 18 0  48 18 0  50 18 0  52 18 0  54 18 0  56 18 0  58 18 0  60 18 0  62 18 0  64 18 0  66 18 0  68 18 0  70 18 0  72 18 0  74 18 0  76 18 0  78 18 0  80 18 0  82 18 0  84 18 0  86 18 0  88 18 0  90 18 0  92 18 0  94 18 0  96 18 0  98 18 0  100 18 0  102 18 0  104 18 0  106 18 0  108 18 0  110 18 0  112 18 0  114 18 0  116 18 0  118 18 0  120 18 0  122 18 0  124 18 0  126 18 0  128 18 0  130 18 0  132 18 0  134 18 0  136 18 0  138 18 0  140 18 0  142 18 0  144 18 0  146 18 0  148 18 0  150 18 0  152 18 0  154 18 0  156 18 0  158 18 0  160 18 0  162 18 0  164 18 0  166 18 0  168 18 0  170 18 0  172 18 0  174 18 0  176 18 0  178 18 0  180 18 0  182 18 0  184 18 0  186 18 0  188 18 0  190 18 0  192 18 0  194 18 0  196 18 0  198 18 0  200 18 0  0 20 0  2 20 0  4 20 0  6 20 0  8 20 0  10 20 0  12 20 0  14 20 0  16 20 0  18 20 0  20 20 0  22 20 0  24 20 0  26 20 0  28 20 0  30 20 0  32 20 0  34 20 0  36 20 0  38 20 0  40 20 0  42 20 0  44 20 0  46 20 0  48 20 0  50 20 0  52 20 0  54 20 0  56 20 0  58 20 0  60 20 0  62 20 0  64 20 0  66 20 0  68 20 0  70 20 0  72 20 0  74 20 0  76 20 0  78 20 0  80 20 0  82 20 0  84 20 0  86 20 0  88 20 0  90 20 0  92 20 0  94 20 0  96 20 0  98 20 0  100 20 0  102 20 0  104 20 0  106 20 0  108 20 0  110 20 0  112 20 0  114 20 0  116 20 0  118 20 0  120 20 0  122 20 0  124 20 0  126 20 0  128 20 0  130 20 0  132 20 0  134 20 0  136 20 0  138 20 0  140 20 0  142 20 0  144 20 0  146 20 0  148 20 0  150 20 0  152 20 0  154 20 0  156 20 0
[...]
<PointData  Scalars="f_271-4"> 
<DataArray  type="Float64"  Name="f_271-4"  format="ascii">1.2757467769509737e-03  1.1891143267784557e-03  9.6424539499244128e-04  6.8259646064403436e-04  4.2628995541792999e-04  2.4921167792140428e-04  1.7425811180769220e-04  2.0244966550342374e-04  3.1889773365328960e-04  4.9206592318948837e-04  6.7421282278460151e-04  8.1213906478708544e-04  8.6700290829771977e-04  8.3020953716961385e-04  7.2258006447009269e-04  5.7847400765240382e-04  4.2902855186482638e-04  2.9483139485659275e-04  1.8663711508820480e-04  1.0805210377732911e-04  5.7297306809739585e-05  2.8764699635177210e-05  1.5396482310232175e-05  1.1458011791199699e-05  1.4449217565044434e-05  2.5293204962243233e-05  4.6818074402093981e-05  8.1187197546233868e-05  1.2718329433791559e-04  1.7837814221601420e-04  2.2336860807820345e-04  2.4897815143514016e-04  2.4588096689032889e-04  2.1384935858637663e-04  1.6298091470377826e-04  1.0965502377049823e-04  6.9659779325788478e-05  5.2285930268823716e-05  5.8345584105883837e-05  8.4052988815694338e-05  1.2910039221056700e-04  2.0025414001436143e-04  3.0258854957903794e-04  4.2538753536158433e-04  5.3901807000025271e-04  6.0760311939920934e-04  6.0771868041148446e-04  5.4051271963228111e-04  4.2965904576161595e-04  3.0739603362826151e-04  1.9951583664285202e-04  1.1854409704655591e-04  6.5556098130976740e-05  3.5653013441094868e-05  2.2946853911628619e-05  2.3516705626884068e-05  3.5659868692902014e-05  5.5058789927700759e-05  6.0173703489331555e-05  2.5384148681273893e-05  3.4004468328906548e-05  -4.3115538719760250e-04  2.1579599255990900e-02  2.8256295302248058e-01  7.7741999816747120e-01  9.4453179999090497e-01  9.7348043948806851e-01  9.6237952775374702e-01  8.7984188981393419e-01  5.2813656628568872e-01  1.1916556546839742e-01  1.6488997025645265e-02  2.7037070080515114e-03  7.0773267704290056e-04  2.7889783965800037e-04  1.2808363605503294e-04  5.9942703784684451e-05  2.8637470323519561e-05  1.5691435378564536e-05  1.1404907454965847e-05  1.1620600648166161e-05  1.7195333621700701e-05  3.3561037068888533e-05  6.9854493084866502e-05  1.3760070023875585e-04  2.4842385240410249e-04  4.0934239881706101e-04  6.1408881861071865e-04  8.3128671791760003e-04  9.9662464688712177e-04  1.0212973833276843e-03  8.1838639963283761e-04  3.7779628736710636e-04  4.5162242892292676e-05  4.7793020160420955e-07  5.3785753854252533e-08  1.1999422463321125e-08  4.6887855613123981e-09  1.8679144669819938e-09  6.6851619146892839e-10  3.2559981958278930e-10  1.2113385280374878e-03  1.1309043867215810e-03  9.2129890137135665e-04  6.5685056453890754e-04  4.1374152366246698e-04  2.4326057948167014e-04  1.6821912384214059e-04  1.9064701889414960e-04  2.9725454485536563e-04  4.5895022082382609e-04  6.3127250863161241e-04  7.6419125519420724e-04  8.2045770301152759e-04  7.9066999096979573e-04  6.9308080181579724e-04  5.5929854074428459e-04  4.1868512160033822e-04  2.9114477932132564e-04  1.8740132008132426e-04  1.1132839212411564e-04  6.1590579892939641e-05  3.3139217918369197e-05  1.9465735853593029e-05  1.5214834413708830e-05  1.7992694929760441e-05  2.8557789560834985e-05  4.9399906967276190e-05  8.2325835008119610e-05  1.2592461684802941e-04  1.7390907919071283e-04  2.1544046210458776e-04  2.3822541171428265e-04  2.3379977390730486e-04  2.0235633865049000e-04  1.5377366125089956e-04  1.0374575252569855e-04  6.7277264815742007e-05  5.3059363372536252e-05  6.1585427009428509e-05  8.8981618661210850e-05  1.3491073531360861e-04  2.0599196323544072e-04  3.0709389931552410e-04  4.2752756665493438e-04  5.3811953602104460e-04  6.0381144119021218e-04  6.0205230846373790e-04  5.3449581396597693e-04  4.2468867232589547e-04  3.0424888805226163e-04  1.9827240923829379e-04  1.1884603070355630e-04  6.6934522464781799e-05  3.7751332774160846e-05  2.5606231376894879e-05  2.6784754759502100e-05  3.9917573209199667e-05  6.2044332336147145e-05  7.6528319073802695e-05  5.4539605607048993e-05  3.9322889289858448e-05  7.6644748047444632e-05  2.2182190204196907e-02  2.2553706973185214e-01  6.9670452031150976e-01  9.1294294826027556e-01  9.5286710703243027e-01  9.3661042739680456e-01  8.1981852677417855e-01  4.2472495582731773e-01  9.1416675117663437e-02  1.3793099771207967e-02  2.4254528929394865e-03  6.7056038929303146e-04  2.7465352167924773e-04  1.3058755760944019e-04  6.4012472401866238e-05  3.2679032470897319e-05  1.9208893537381702e-05  1.4402060304413021e-05  1.4263492555246309e-05  1.9480617727710875e-05  3.4981345186492531e-05  6.9083093011918794e-05  1.3220395980991322e-04  2.3467312026957649e-04  3.8241261098045020e-04  5.6923823487780786e-04  7.6666161049117624e-04  9.1742919783472992e-04  9.4341431902072038e-04  7.7061070504977336e-04  3.8848314560387657e-04  6.1127565144757055e-05  1.4031529851913337e-06  8.4968717576522802e-08  1.3526489916640843e-08  5.5179081242082346e-09  2.1560739030562384e-09  8.4441644512392784e-10  4.5891862003584769e-10  1.0366296403522676e-03  9.7227901527918714e-04  8.0265149802202340e-04  5.8409501950107000e-04  3.7725659871175267e-04  2.2604919893404318e-04  1.5247245214773542e-04  1.6089754711251161e-04  2.4211572862802336e-04  3.7337734984118742e-04  5.1883401217167580e-04  6.3700464490438341e-04  6.9530637846872687e-04  6.8278999962907553e-04  6.1134660346399766e-04  5.0536784411131920e-04  3.8925270311300882e-04  2.8072654507520163e-04  1.9013494652604632e-04  1.2187940965430441e-04  7.5705989924684130e-05  4.8007936498288622e-05  3.3729811338436737e-05  2.8546572216629000e-05  3.0385924329491001e-05  3.9616178832163902e-05  5.7884919068285280e-05  8.6129911773304632e-05  1.2253761637071975e-04  1.6133256400637652e-04  1.9329740891221994e-04  2.0853961368897194e-04  2.0084748842411212e-04  1.7143019975354108e-04  1.2946723620229451e-04  8.8725222971519640e-05  6.2048407193952330e-05  5.6524536331357909e-05  7.1885062764402813e-05  1.0410011132216948e-04  1.5259825813760029e-04  2.2315133938702236e-04  3.1967051031585845e-04  4.3165963796410281e-04  5.3189209567118100e-04  5.8837526787169773e-04  5.8139588102020217e-04  5.1385870153480026e-04  4.0843954985171643e-04  2.9451859854993592e-04  1.9497930554686146e-04  1.2065046960447665e-04  7.2278076847419244e-05  4.5498924371781021e-05  3.5249009753455145e-05  3.8394375673272762e-05  5.4330271607213272e-05  8.2863422552987442e-05  1.1853449746374863e-04  1.4939384572334319e-04  2.2272473790846769e-04  1.5198154583771139e-03  1.7466029278039124e-02  1.1133136424869322e-01  4.1224700713038537e-01  7.2862011313432362e-01  8.2523937547203818e-01  7.8035280085525471e-01  5.5109822918740425e-01  2.0245814806550991e-01  4.4404366218132825e-02  8.3083562622318502e-03  1.7807820532998780e-03  5.7777192342378940e-04  2.6448325522155351e-04  1.3921500706250554e-04  7.7767429120548722e-05  4.6999385648778260e-05  3.2431727301921191e-05  2.6200493002359334e-05  2.4769175351301882e-05  2.8443756566808339e-05  4.0933506337367511e-05  6.8561097821675561e-05  1.1907820028603728e-04  1.9978256406858296e-04  3.1419468120258301e-04  4.5667563072552593e-04  6.0585780449171826e-04  7.2103405461499434e-04  7.4833116471152358e-04  6.3993408567878871e-04  3.8866535052619261e-04  1.1271192681506291e-04  9.4974257364470039e-06  3.1614906215052095e-07  4.6026480974634529e-08  1.2306562491360704e-08  6.0311198587454263e-09  3.2052481226176633e-09  2.3651098525993943e-09  7.9882348898979933e-04  7.5464707230871902e-04  6.3604353769457949e-04  4.7808147733814822e-04  3.2174076448513637e-04  2.0019066433868280e-04  1.3289277923442513e-04  1.2634113869350552e-04  1.7620285443577534e-04  2.6767077450026293e-04  3.7594239666196509e-04  4.7102496966044548e-04  5.2750555809468966e-04  5.3394270972227588e-04  4.9516417011298520e-04  4.2647646636806636e-04  3.4524747808943102e-04  2.6543085225859165e-04  1.9604500904634042e-04  1.4160066332623042e-04  1.0289010388396751e-04  7.7977284044528758e-05  6.3623004460138527e-05  5.6885007741507503e-05  5.6241980083078726e-05  6.1747451427414510e-05  7.4193003837700068e-05  9.3682529998704824e-05  1.1824153852434767e-04  1.4315176077826992e-04  1.6162059896845273e-04  1.6699497413186801e-04  1.5586627710799587e-04  1.3047181270793573e-04  9.8740433244658580e-05  7.1612971450579340e-05  5.8875894745735112e-05  6.5455243058798107e-05  9.0241565089885806e-05  1.2913914986162198e-04  1.8090878928789459e-04  2.4925871140797255e-04  3.3607652509081462e-04  4.3154310367980470e-04  5.1270901089757264e-04  5.5364757886191879e-04  5.3952301369205311e-04  4.7461139865394032e-04  3.7916619208561077e-04  2.7823598381944463e-04  1.9093524491256312e-04  1.2620390873230796e-04  8.4651035282247637e-05  6.2731425866364979e-05  5.6395183340770521e-05  6.3283881104790973e-05  8.3449964865792400e-05  1.1869023034560910e-04  1.7158149854620689e-04  2.5330866635711477e-04  4.7328004453848403e-04  1.7076010209948998e-03  8.5012941753968892e-03  3.7253144213781543e-02  1.2496128690868405e-01  2.8118357912143949e-01  3.8049388975900394e-01  3.2553555322006789e-01  1.7353698964151329e-01  5.9662933144183611e-02  1.6009247494398870e-02  3.9089235855637337e-03  1.1336919693334484e-03  4.6949298078026837e-04  2.5456794015133030e-04  1.5692160201264576e-04  1.0537156758014145e-04  7.7543822678867791e-05  6.2603737290140937e-05  5.4403928560978407e-05  5.0087357867327464e-05  4.9704721031582792e-05  5.5782878866270188e-05  7.2597230135120497e-05  1.0514439316156516e-04  1.5770682593429605e-04  2.3172084863328499e-04  3.2280700169344583e-04  4.1760308172000165e-04  4.9248053535635192e-04  5.1737269893600282e-04  4.6670093763023969e-04  3.3655005290319899e-04  1.6574061845661626e-04  4.2855687317142080e-05  5.5686598494642817e-06  5.7491636760234595e-07  4.0365596114058574e-08  -1.8932595955769708e-08  -1.7770335410836411e-08  -1.5053118122276443e-08  5.5351102797951174e-04  5.2794367354737392e-04  4.5754658387452406e-04  3.5954415012408184e-04  2.5680140507038898e-04  1.7073148101379160e-04  1.1624160701983238e-04  1.0033095118334987e-04  1.2255872845723690e-04  1.7532534339585366e-04  2.4431430100563825e-04  3.1113286245213899e-04  3.5882155593629261e-04  3.7770038556093492e-04  3.6774994170713003e-04  3.3629508704560799e-04  2.9338797852290966e-04  2.4807163544805089e-04  2.0671230029525281e-04  1.7276082410539652e-04  1.4710846089560116e-04  1.2877855922319701e-04  1.1593172801587897e-04  1.0694483388811578e-04  1.0112781103556038e-04  9.8761852501391147e-05  1.0047888492909158e-04  1.0630849532410169e-04  1.1485964564180882e-04  1.2309092128229469e-04  1.2697752799593277e-04  1.2305494568452791e-04  1.1030279377338056e-04  9.1392215235190085e-05  7.2421779624726908e-05  6.1022046421223026e-05  6.3562795816930217e-05  8.2664716396757326e-05  1.1648693647293146e-04  1.6097498947113822e-04  2.1389640671767258e-04  2.7615387159950867e-04  3.4723428103886403e-04  4.1884722916355648e-04  4.7438696424775855e-04  4.9623483820790675e-04  4.7556570033329706e-04  4.1752349112636521e-04  3.3834877799937324e-04  2.5710888337792407e-04  1.8813356674280397e-04  1.3817135037552897e-04  1.0781223016159936e-04  9.4526900582819984e-05  9.5327077804715325e-05  1.0840394477287742e-04  1.3380139535654385e-04  1.7342715685603825e-04  2.3158396614087078e-04  3.2214837645476923e-04  5.1248615662280352e-04  1.1069002964689235e-03  3.2122644984192636e-03  9.8395538732106852e-03  2.5742047757190474e-02  5.0802451131269660e-02  6.8199694481055756e-02  5.7926974423868828e-02  3.2751561132976448e-02  1.3821390260372284e-02  4.8083102736172761e-03  1.6531811978099415e-03  6.8885484154594168e-04  3.7822256026186750e-04  2.5140409751114764e-04  1.8738608389013033e-04  1.5225069346677084e-04  1.3224800303908340e-04  1.1950795313865654e-04  1.0928676866692259e-04  9.9515288170796821e-05  9.0592886654176596e-05  8.4873036645933736e-05  8.5810639793559027e-05  9.6948593821900243e-05  1.2085800183035491e-04  1.5799749554226588e-04  2.0547855974649754e-04  2.5601974891985323e-04  2.9785178699693118e-04  3.1668640123425442e-04  3.0049273524066904e-04  2.4637947653196880e-04  1.6659411706649091e-04  8.7430475853586605e-05  3.5129167155351411e-05  1.2412688507940565e-05  4.8820084727747432e-06  2.2479447927951267e-06  1.2040950751685181e-06  9.1648353258478997e-07  3.4450892891868317e-04  3.3266869955764813e-04  2.9896547730899186e-04  2.4940817826006590e-04  1.9393619838047564e-04  1.4372245006715530e-04  1.0789796851914557e-04  9.1785691206157960e-05  9.6588317068726855e-05  1.1952785644689945e-04  1.5420055772046064e-04  1.9181545234775614e-04  2.2369247160678796e-04  2.4410927712347716e-04  2.5182807943773672e-04  2.4946273386627503e-04  2.4142345124446483e-04  2.3185076402526457e-04  2.2338047399566701e-04  2.1677550980577667e-04  2.1117704016647488e-04  2.0480353886556145e-04  1.9592148252439449e-04  1.8374285042345806e-04  1.6883186862856568e-04  1.5282393187011529e-04  1.3764117083076680e-04  1.2462962454485414e-04  1.1401466948121466e-04  1.0489135113062768e-04  9.5775395505514851e-05  8.5553716919904016e-05  7.4469573226972787e-05  6.4651129022271181e-05  5.9809068873210503e-05  6.4092603016524527e-05  8.0483578521580774e-05  1.0939575970051150e-04  1.4837068041904111e-04  1.9351655637336599e-04  2.4187681712715205e-04  2.9219539713753410e-04  3.4254203174289828e-04  3.8709598242351304e-04  4.1615302131623480e-04  4.2041375046968890e-04  3.9651004792391645e-04  3.4961549081267534e-04  2.9130244940193066e-04  2.3443052624285267e-04  1.8863800900678160e-04  1.5863525649985523e-04  1.4497983142318664e-04  1.4583857829949040e-04  1.5862586482194078e-04  1.8115338122250658e-04  2.1230447672047743e-04  2.5237724893323592e-04  3.0363998611361169e-04  3.7321951701610982e-04  4.8485229391389124e-04  7.1492943180052556e-04  1.2699955117603560e-03  2.5434764000721818e-03  4.8668695472402421e-03  7.6915599394945114e-03  9.2527144003109584e-03  8.2805718844687348e-03  5.5857814281440000e-03  3.0097521297606858e-03  1.4547535378605710e-03  7.3392582333553762e-04  4.3911569507894282e-04  3.1536534548529138e-04  2.5899580466567641e-04  2.3330515203953011e-04  2.2292042156732604e-04  2.1833103613273192e-04  2.1245641161729204e-04  2.0074352417080721e-04  1.8184993695862078e-04  1.5769580718698662e-04  1.3251364244604589e-04  1.1126889938890018e-04  9.8156518235473876e-05  9.5632145966986025e-05  1.0397155125799921e-04  1.2113418768640305e-04  1.4284364567759906e-04  1.6305623587371858e-04  1.7510822208662293e-04  1.7367183063267966e-04  1.5715303837998763e-04  1.2935921709239458e-04  9.8599509711771701e-05  7.3222356316447306e-05  5.6594048042976424e-05  4.6541115420048770e-05  3.9607198075402701e-05  3.4771648264804511e-05  3.2953537707018106e-05  1.9441602710574529e-04  1.9058561357720093e-04  1.7934726492814594e-04  1.6214890635813972e-04  1.4226937383644055e-04  1.2390841498956134e-04  1.1056073386278716e-04  1.0404097419049530e-04  1.0443580147305008e-04  1.1052359583660587e-04  1.2029509837197113e-04  1.3156390684603600e-04  1.4271785762759459e-04  1.5338775993881668e-04  1.6461995947154292e-04  1.7835131932619443e-04  1.9639883177692785e-04  2.1939005698484089e-04  2.4600323704657639e-04  2.7277318151017503e-04  2.9465164920765806e-04  3.0635637952391114e-04  3.0416320936805440e-04  2.8734655793343395e-04  2.5844433021430179e-04  2.2218833395901551e-04  1.8379427639239894e-04  1.4755242373211525e-04  1.1620795372102987e-04  9.1053860729548247e-05  7.2419502589853144e-05  6.0272914659836479e-05  5.4734454842094396e-05  5.6335046751060443e-05  6.5906078001742071e-05  8.4110136692842205e-05  1.1077839976209593e-04  1.4437713179669411e-04  1.8203610425939924e-04  2.2038661135763462e-04  2.5673938425596979e-04  2.8946181994962027e-04  3.1698139902711558e-04  3.3647624109974964e-04  3.4399319587433532e-04  3.3642084628804966e-04  3.1391582141671043e-04  2.8088518297049198e-04  2.4477489146357219e-04  2.1356200331123333e-04  1.9350182256896924e-04  1.8799342251834856e-04  1.9745283926611652e-04  2.1976858272240463e-04  2.5111590428970832e-04  2.8705225312574724e-04  3.2371806412607405e-04  3.5883842776913456e-04  3.9235512741013197e-04  4.2704121989724014e-04  4.7024510728657865e-04  5.3827709540433405e-04  6.6156822790088118e-04  8.7658209762864149e-04  1.1816057779707905e-03  1.4805172657347163e-03  1.6115701772094660e-03  1.4804080666815766e-03  1.1555470637189006e-03  8.0088244051059051e-04  5.3558450226634242e-04  3.8087153781125502e-04  3.0549105024657851e-04  2.7746947316328039e-04  2.7755942495293154e-04  2.9430074909956672e-04  3.1798871528776159e-04  3.3845469143676756e-04  3.4599336591820601e-04  3.3401776777374257e-04  3.0157374694604237e-04  2.5382133393021317e-04  1.9987973977835663e-04  1.4930556875595146e-04  1.0920625452488513e-04  8.3073308176508017e-05  7.1035582846368405e-05  7.0657392776104824e-05  7.7765690651143994e-05  8.7357251019183369e-05  9.4782188487527007e-05  9.7102953599764751e-05  9.4167951708077805e-05  8.8814225791087210e-05  8.5776660205679487e-05  8.9390142595638784e-05  1.0102745737124963e-04  1.1791770259706616e-04  1.3453945046588414e-04  1.4588992813964672e-04  1.4977148178357765e-04  1.0662312443410636e-04  1.0579160680312915e-04  1.0409652826653410e-04  1.0353355310348065e-04  1.0623686616323458e-04  1.1325271892550358e-04  1.2377176738485507e-04  1.3520229840521564e-04  1.4404871617957300e-04  1.4723292597980863e-04  1.4338289657483220e-04  1.3366949402741012e-04  1.2187852465160798e-04  1.1360241001131032e-04  1.1481273804704099e-04  1.3036707816178010e-04  1.6283958768583068e-04  2.1163912512061494e-04  2.7229707861231345e-04  3.3624180662906008e-04  3.9181368824443429e-04  4.2705111823940109e-04  4.3365238190489760e-04  4.1014187694430004e-04  3.6216772532252783e-04  2.9974977652942803e-04  2.3347124370618524e-04  1.7182462750402690e-04  1.2039769708325560e-04  8.2233395359236421e-05  5.8484230900039205e-05  4.8935914495440093e-05  5.2376673670736960e-05  6.6889427237953853e-05  9.0081483852478923e-05  1.1923564291232576e-04  1.5141469274975448e-04  1.8361151541127480e-04  2.1304346450414302e-04  2.3758580838499489e-04  2.5612003968585490e-04  2.6845409055729279e-04  2.7475406891276101e-04  2.7495466799344544e-04  2.6875689129717640e-04  2.5631560888980984e-04  2.3908937891927150e-04  2.2021989696744074e-04  2.0426199807779352e-04  1.9650422348787487e-04  2.0201225950351034e-04  2.2425942755180780e-04  2.6351294887944434e-04  3.1580081909585216e-04  3.7334269804440307e-04  4.2659739123154528e-04  4.6716964545975316e-04  4.9028761932985829e-04  4.9578533508559566e-04  4.8746791221850375e-04  4.7167085388708478e-04  4.5590300896103061e-04  4.4745754731084715e-04  4.5061746967914893e-04  4.6221425734411885e-04  4.6972064367904515e-04  4.5724061977054151e-04  4.1732145501535825e-04  3.5780706777861570e-04  2.9664019429520078e-04  2.5042844873617113e-04  2.2773376667217644e-04  2.3022878424712727e-04  2.5647079402852947e-04  3.0335156058185621e-04  3.6490568782442020e-04  4.3068380244829375e-04  4.8579561204382227e-04  5.1404284324264166e-04  5.0383028120654344e-04  4.5385150764168006e-04  3.7440775909219974e-04  2.8293545717610774e-04  1.9677919102076017e-04  1.2780265010791471e-04  8.0956612377973812e-05  5.5662533639136213e-05  4.7810512241533727e-05  5.1264284443300154e-05  5.9157203180050058e-05  6.5552884689741182e-05  6.7312230593804260e-05  6.5298214186452791e-05  6.4140547055662684e-05  7.0504757599987113e-05  9.0461400619962321e-05  1.2670344621324182e-04  1.7621309372183819e-04  2.2917334063108963e-04  2.7068005794411731e-04  2.8650238149013728e-04  7.2187871507683760e-05  7.0674717692963742e-05  6.8733944074476385e-05  7.2120086153289629e-05  8.5733498315355953e-05  1.1080536468235797e-04  1.4413981429657624e-04  1.7890750760533969e-04  2.0654105877776260e-04  2.1932741993375892e-04  2.1308680240670258e-04  1.8915713051832078e-04  1.5482269833278265e-04  1.2164546864670336e-04  1.0222340393112592e-04  1.0692028540547874e-04  1.4175549169778289e-04  2.0722854394331978e-04  2.9722781778981742e-04  3.9820036832567880e-04  4.9026377501772524e-04  5.5197710