<?xml version="1.0"?>
<VTKFile type="UnstructuredGrid"  version="0.1"  >
<UnstructuredGrid>
<Piece  NumberOfPoints="20201" NumberOfCells="40000">
<Points>
<DataArray  type="Float64"  NumberOfComponents="3"  format="ascii">0 0 0  2 0 0  4 0 0  6 0 0  8 0 0  10 0 0  12 0 0  14 0 0  16 0 0  18 0 0  20 0 0  22 0 0  24 0 0  26 0 0  28 0 0  30 0 0  32 0 0  34 0 0  36 0 0  38 0 0  40 0 0  42 0 0  44 0 0  46 0 0  48 0 0  50 0 0  52 0 0  54 0 0  56 0 0  58 0 0  60 0 0  62 0 0  64 0 0  66 0 0  68 0 0  70 0 0  72 0 0  74 0 0  76 0 0  78 0 0  80 0 0  82 0 0  84 0 0  86 0 0  88 0 0  90 0 0  92 0 0  94 0 0  96 0 0  98 0 0  100 0 0  102 0 0  104 0 0  106 0 0  108 0 0  110 0 0  112 0 0  114 0 0  116 0 0  118 0 0  120 0 0  122 0 0  124 0 0  126 0 0  128 0 0  130 0 0  132 0 0  134 0 0  136 0 0  138 0 0  140 0 0  142 0 0  144 0 0  146 0 0  148 0 0  150 0 0  152 0 0  154 0 0  156 0 0  158 0 0  160 0 0  162 0 0  164 0 0  166 0 0  168 0 0  170 0 0  172 0 0  174 0 0  176 0 0  178 0 0  180 0 0  182 0 0  184 0 0  186 0 0  188 0 0  190 0 0  192 0 0  194 0 0  196 0 0  198 0 0  200 0 0  0 2 0  2 2 0  4 2 0  6 2 0  8 2 0  10 2 0  12 2 0  14 2 0  16 2 0  18 2 0  20 2 0  22 2 0  24 2 0  26 2 0  28 2 0  30 2 0  32 2 0  34 2 0  36 2 0  38 2 0  40 2 0  42 2 0  44 2 0  46 2 0  48 2 0  50 2 0  52 2 0  54 2 0  56 2 0  58 2 0  60 2 0  62 2 0  64 2 0  66 2 0  68 2 0  70 2 0  72 2 0  74 2 0  76 2 0  78 2 0  80 2 0  82 2 0  84 2 0  86 2 0  88 2 0  90 2 0  92 2 0  94 2 0  96 2 0  98 2 0  100 2 0  102 2 0  104 2 0  106 2 0  108 2 0  110 2 0  112 2 0  114 2 0  116 2 0  118 2 0  120 2 0  122 2 0  124 2 0  126 2 0  128 2 0  130 2 0  132 2 0  134 2 0  136 2 0  138 2 0  140 2 0  142 2 0  144 2 0  146 2 0  148 2 0  150 2 0  152 2 0  154 2 0  156 2 0  158 2 0  160 2 0  162 2 0  164 2 0  166 2 0  168 2 0  170 2 0  172 2 0  174 2 0  176 2 0  178 2 0  180 2 0  182 2 0  184 2 0  186 2 0  188 2 0  190 2 0  192 2 0  194 2 0  196 2 0  198 2 0  200 2 0  0 4 0  2 4 0  4 4 0  6 4 0  8 4 0  10 4 0  12 4 0  14 4 0  16 4 0  18 4 0  20 4 0  22 4 0  24 4 0  26 4 0  28 4 0  30 4 0  32 4 0  34 4 0  36 4 0  38 4 0  40 4 0  42 4 0  44 4 0  46 4 0  48 4 0  50 4 0  52 4 0  54 4 0  56 4 0  58 4 0  60 4 0  62 4 0  64 4 0  66 4 0  68 4 0  70 4 0  72 4 0  74 4 0  76 4 0  78 4 0  80 4 0  82 4 0  84 4 0  86 4 0  88 4 0  90 4 0  92 4 0  94 4 0  96 4 0  98 4 0  100 4 0  102 4 0  104 4 0  106 4 0  108 4 0  110 4 0  112 4 0  114 4 0  116 4 0  118 4 0  120 4 0  122 4 0  124 4 0  126 4 0  128 4 0  130 4 0  132 4 0  134 4 0  136 4 0  138 4 0  140 4 0  142 4 0  144 4 0  146 4 0  148 4 0  150 4 0  152 4 0  154 4 0  156 4 0  158 4 0  160 4 0  162 4 0  164 4 0  166 4 0  168 4 0  170 4 0  172 4 0  174 4 0  176 4 0  178 4 0  180 4 0  182 4 0  184 4 0  186 4 0  188 4 0  190 4 0  192 4 0  194 4 0  196 4 0  198 4 0  200 4 0  0 6 0  2 6 0  4 6 0  6 6 0  8 6 0  10 6 0  12 6 0  14 6 0  16 6 0  18 6 0  20 6 0  22 6 0  24 6 0  26 6 0  28 6 0  30 6 0  32 6 0  34 6 0  36 6 0  38 6 0  40 6 0  42 6 0  44 6 0  46 6 0  48 6 0  50 6 0  52 6 0  54 6 0  56 6 0  58 6 0  60 6 0  62 6 0  64 6 0  66 6 0  68 6 0  70 6 0  72 6 0  74 6 0  76 6 0  78 6 0  80 6 0  82 6 0  84 6 0  86 6 0  88 6 0  90 6 0  92 6 0  94 6 0  96 6 0  98 6 0  100 6 0  102 6 0  104 6 0  106 6 0  108 6 0  110 6 0  112 6 0  114 6 0  116 6 0  118 6 0  120 6 0  122 6 0  124 6 0  126 6 0  128 6 0  130 6 0  132 6 0  134 6 0  136 6 0  138 6 0  140 6 0  142 6 0  144 6 0  146 6 0  148 6 0  150 6 0  152 6 0  154 6 0  156 6 0  158 6 0  160 6 0  162 6 0  164 6 0  166 6 0  168 6 0  170 6 0  172 6 0  174 6 0  176 6 0  178 6 0  180 6 0  182 6 0  184 6 0  186 6 0  188 6 0  190 6 0  192 6 0  194 6 0  196 6 0  198 6 0  200 6 0  0 8 0  2 8 0  4 8 0  6 8 0  8 8 0  10 8 0  12 8 0  14 8 0  16 8 0  18 8 0  20 8 0  22 8 0  24 8 0  26 8 0  28 8 0  30 8 0  32 8 0  34 8 0  36 8 0  38 8 0  40 8 0  42 8 0  44 8 0  46 8 0  48 8 0  50 8 0  52 8 0  54 8 0  56 8 0  58 8 0  60 8 0  62 8 0  64 8 0  66 8 0  68 8 0  70 8 0  72 8 0  74 8 0  76 8 0  78 8 0  80 8 0  82 8 0  84 8 0  86 8 0  88 8 0  90 8 0  92 8 0  94 8 0  96 8 0  98 8 0  100 8 0  102 8 0  104 8 0  106 8 0  108 8 0  110 8 0  112 8 0  114 8 0  116 8 0  118 8 0  120 8 0  122 8 0  124 8 0  126 8 0  128 8 0  130 8 0  132 8 0  134 8 0  136 8 0  138 8 0  140 8 0  142 8 0  144 8 0  146 8 0  148 8 0  150 8 0  152 8 0  154 8 0  156 8 0  158 8 0  160 8 0  162 8 0  164 8 0  166 8 0  168 8 0  170 8 0  172 8 0  174 8 0  176 8 0  178 8 0  180 8 0  182 8 0  184 8 0  186 8 0  188 8 0  190 8 0  192 8 0  194 8 0  196 8 0  198 8 0  200 8 0  0 10 0  2 10 0  4 10 0  6 10 0  8 10 0  10 10 0  12 10 0  14 10 0  16 10 0  18 10 0  20 10 0  22 10 0  24 10 0  26 10 0  28 10 0  30 10 0  32 10 0  34 10 0  36 10 0  38 10 0  40 10 0  42 10 0  44 10 0  46 10 0  48 10 0  50 10 0  52 10 0  54 10 0  56 10 0  58 10 0  60 10 0  62 10 0  64 10 0  66 10 0  68 10 0  70 10 0  72 10 0  74 10 0  76 10 0  78 10 0  80 10 0  82 10 0  84 10 0  86 10 0  88 10 0  90 10 0  92 10 0  94 10 0  96 10 0  98 10 0  100 10 0  102 10 0  104 10 0  106 10 0  108 10 0  110 10 0  112 10 0  114 10 0  116 10 0  118 10 0  120 10 0  122 10 0  124 10 0  126 10 0  128 10 0  130 10 0  132 10 0  134 10 0  136 10 0  138 10 0  140 10 0  142 10 0  144 10 0  146 10 0  148 10 0  150 10 0  152 10 0  154 10 0  156 10 0  158 10 0  160 10 0  162 10 0  164 10 0  166 10 0  168 10 0  170 10 0  172 10 0  174 10 0  176 10 0  178 10 0  180 10 0  182 10 0  184 10 0  186 10 0  188 10 0  190 10 0  192 10 0  194 10 0  196 10 0  198 10 0  200 10 0  0 12 0  2 12 0  4 12 0  6 12 0  8 12 0  10 12 0  12 12 0  14 12 0  16 12 0  18 12 0  20 12 0  22 12 0  24 12 0  26 12 0  28 12 0  30 12 0  32 12 0  34 12 0  36 12 0  38 12 0  40 12 0  42 12 0  44 12 0  46 12 0  48 12 0  50 12 0  52 12 0  54 12 0  56 12 0  58 12 0  60 12 0  62 12 0  64 12 0  66 12 0  68 12 0  70 12 0  72 12 0  74 12 0  76 12 0  78 12 0  80 12 0  82 12 0  84 12 0  86 12 0  88 12 0  90 12 0  92 12 0  94 12 0  96 12 0  98 12 0  100 12 0  102 12 0  104 12 0  106 12 0  108 12 0  110 12 0  112 12 0  114 12 0  116 12 0  118 12 0  120 12 0  122 12 0  124 12 0  126 12 0  128 12 0  130 12 0  132 12 0  134 12 0  136 12 0  138 12 0  140 12 0  142 12 0  144 12 0  146 12 0  148 12 0  150 12 0  152 12 0  154 12 0  156 12 0  158 12 0  160 12 0  162 12 0  164 12 0  166 12 0  168 12 0  170 12 0  172 12 0  174 12 0  176 12 0  178 12 0  180 12 0  182 12 0  184 12 0  186 12 0  188 12 0  190 12 0  192 12 0  194 12 0  196 12 0  198 12 0  200 12 0  0 14 0  2 14 0  4 14 0  6 14 0  8 14 0  10 14 0  12 14 0  14 14 0  16 14 0  18 14 0  20 14 0  22 14 0  24 14 0  26 14 0  28 14 0  30 14 0  32 14 0  34 14 0  36 14 0  38 14 0  40 14 0  42 14 0  44 14 0  46 14 0  48 14 0  50 14 0  52 14 0  54 14 0  56 14 0  58 14 0  60 14 0  62 14 0  64 14 0  66 14 0  68 14 0  70 14 0  72 14 0  74 14 0  76 14 0  78 14 0  80 14 0  82 14 0  84 14 0  86 14 0  88 14 0  90 14 0  92 14 0  94 14 0  96 14 0  98 14 0  100 14 0  102 14 0  104 14 0  106 14 0  108 14 0  110 14 0  112 14 0  114 14 0  116 14 0  118 14 0  120 14 0  122 14 0  124 14 0  126 14 0  128 14 0  130 14 0  132 14 0  134 14 0  136 14 0  138 14 0  140 14 0  142 14 0  144 14 0  146 14 0  148 14 0  150 14 0  152 14 0  154 14 0  156 14 0  158 14 0  160 14 0  162 14 0  164 14 0  166 14 0  168 14 0  170 14 0  172 14 0  174 14 0  176 14 0  178 14 0  180 14 0  182 14 0  184 14 0  186 14 0  188 14 0  190 14 0  192 14 0  194 14 0  196 14 0  198 14 0  200 14 0  0 16 0  2 16 0  4 16 0  6 16 0  8 16 0  10 16 0  12 16 0  14 16 0  16 16 0  18 16 0  20 16 0  22 16 0  24 16 0  26 16 0  28 16 0  30 16 0  32 16 0  34 16 0  36 16 0  38 16 0  40 16 0  42 16 0  44 16 0  46 16 0  48 16 0  50 16 0  52 16 0  54 16 0  56 16 0  58 16 0  60 16 0  62 16 0  64 16 0  66 16 0  68 16 0  70 16 0  72 16 0  74 16 0  76 16 0  78 16 0  80 16 0  82 16 0  84 16 0  86 16 0  88 16 0  90 16 0  92 16 0  94 16 0  96 16 0  98 16 0  100 16 0  102 16 0  104 16 0  106 16 0  108 16 0  110 16 0  112 16 0  114 16 0  116 16 0  118 16 0  120 16 0  122 16 0  124 16 0  126 16 0  128 16 0  130 16 0  132 16 0  134 16 0  136 16 0  138 16 0  140 16 0  142 16 0  144 16 0  146 16 0  148 16 0  150 16 0  152 16 0  154 16 0  156 16 0  158 16 0  160 16 0  162 16 0  164 16 0  166 16 0  168 16 0  170 16 0  172 16 0  174 16 0  176 16 0  178 16 0  180 16 0  182 16 0  184 16 0  186 16 0  188 16 0  190 16 0  192 16 0  194 16 0  196 16 0  198 16 0  200 16 0  0 18 0  2 18 0  4 18 0  6 18 0  8 18 0  10 18 0  12 18 0  14 18 0  16 18 0  18 18 0  20 18 0  22 18 0  24 18 0  26 18 0  28 18 0  30 18 0  32 18 0  34 18 0  36 18 0  38 18 0  40 18 0  42 18 0  44 18 0  46 18 0  48 18 0  50 18 0  52 18 0  54 18 0  56 18 0  58 18 0  60 18 0  62 18 0  64 18 0  66 18 0  68 18 0  70 18 0  72 18 0  74 18 0  76 18 0  78 18 0  80 18 0  82 18 0  84 18 0  86 18 0  88 18 0  90 18 0  92 18 0  94 18 0  96 18 0  98 18 0  100 18 0  102 18 0  104 18 0  106 18 0  108 18 0  110 18 0  112 18 0  114 18 0  116 18 0  118 18 0  120 18 0  122 18 0  124 18 0  126 18 0  128 18 0  130 18 0  132 18 0  134 18 0  136 18 0  138 18 0  140 18 0  142 18 0  144 18 0  146 18 0  148 18 0  150 18 0  152 18 0  154 18 0  156 18 0  158 18 0  160 18 0  162 18 0  164 18 0  166 18 0  168 18 0  170 18 0  172 18 0  174 18 0  176 18 0  178 18 0  180 18 0  182 18 0  184 18 0  186 18 0  188 18 0  190 18 0  192 18 0  194 18 0  196 18 0  198 18 0  200 18 0  0 20 0  2 20 0  4 20 0  6 20 0  8 20 0  10 20 0  12 20 0  14 20 0  16 20 0  18 20 0  20 20 0  22 20 0  24 20 0  26 20 0  28 20 0  30 20 0  32 20 0  34 20 0  36 20 0  38 20 0  40 20 0  42 20 0  44 20 0  46 20 0  48 20 0  50 20 0  52 20 0  54 20 0  56 20 0  58 20 0  60 20 0  62 20 0  64 20 0  66 20 0  68 20 0  70 20 0  72 20 0  74 20 0  76 20 0  78 20 0  80 20 0  82 20 0  84 20 0  86 20 0  88 20 0  90 20 0  92 20 0  94 20 0  96 20 0  98 20 0  100 20 0  102 20 0  104 20 0  106 20 0  108 20 0  110 20 0  112 20 0  114 20 0  116 20 0  118 20 0  120 20 0  122 20 0  124 20 0  126 20 0  128 20 0  130 20 0  132 20 0  134 20 0  136 20 0  138 20 0  140 20 0  142 20 0  144 20 0  146 20 0  148 20 0  150 20 0  152 20 0  154 20 0  156 20 0
[...]
<PointData  Scalars="f_271-4"> 
<DataArray  type="Float64"  Name="f_271-4"  format="ascii">5.2461423008271706e-14  5.1153267916494126e-14  4.7532483174311181e-14  4.2425414283122956e-14  3.6955649528529393e-14  3.2251041535038109e-14  2.9170324564303320e-14  2.8119665757567845e-14  2.8995282217586360e-14  3.1252132061787588e-14  3.4069655148133941e-14  3.6566257742547431e-14  3.8006020403035458e-14  3.7946429840181991e-14  3.6295603818853918e-14  3.3276501145582996e-14  2.9323371488418219e-14  2.4951469988813720e-14  2.0640292575550782e-14  1.6756817040037778e-14  1.3526669376795474e-14  1.1045413285649708e-14  9.3132407224520105e-15  8.2745931976865286e-15  7.8481301797725982e-15  7.9398581274820403e-15  8.4407976975318276e-15  9.2177400830784624e-15  1.0108998099013168e-14  1.0935111751234428e-14  1.1527580197681810e-14  1.1769428170502104e-14  1.1633891020643474e-14  1.1205634546993896e-14  1.0674236388768305e-14  1.0299927026858879e-14  1.0361583798285449e-14  1.1101355031343105e-14  1.2677225127413520e-14  1.5127680414808127e-14  1.8347896856072734e-14  2.2079028585895817e-14  2.5919213361685494e-14  2.9368881017432385e-14  3.1916711713023728e-14  3.3158926967596527e-14  3.2943407385450163e-14  3.1584142207232461e-14  3.0347897886552895e-14  3.2446165985466228e-14  4.2903028358596537e-14  5.9906977904779221e-14  8.0165662286054961e-14  5.2385555563670930e-13  -1.3147525503535490e-11  2.3663519425638657e-10  -4.1814008119691702e-09  7.3568295069099345e-08  -1.2934579783452974e-06  2.2825769935547293e-05  -4.1276177018589080e-04  9.1439978918004591e-03  3.1954399633610958e-01  8.4701067477966330e-01  9.7651181459373038e-01  9.9599465857683200e-01  9.9927124151640956e-01  9.9983580583929965e-01  9.9988056131719560e-01  9.9964749231747663e-01  9.9856360060696647e-01  9.9368474595316336e-01  9.7036187424020193e-01  8.4501123496545105e-01  3.9394790078908004e-01  7.3076305024257465e-02  1.0375465732699093e-02  1.4621356164662873e-03  2.0723051940869190e-04  2.9551326468478938e-05  4.2348656527988404e-06  6.0915928136460790e-07  8.7873927780304125e-08  1.2703935311672726e-08  1.8397252641300807e-09  2.6678712488246568e-10  3.8746199597386599e-11  5.6497356904328125e-12  8.3443361990476916e-13  1.1513280811796135e-13  6.4187485263274848e-15  1.5230559025771099e-18  7.0118923842795581e-18  -3.5015800408396995e-19  2.0817430045109211e-20  -1.1100790250870375e-21  5.9167126761159552e-23  -3.2198931276950128e-24  1.8102227749017186e-25  -1.2031088014547615e-26  4.8021755426293402e-27  5.1182126207580567e-14  4.9913871667373375e-14  4.6403103320570239e-14  4.1449962552037645e-14  3.6142832217199843e-14  3.1574940093377906e-14  2.8579641986040252e-14  2.7552482918010383e-14  2.8395189883084060e-14  3.0581805284645208e-14  3.3318971583373386e-14  3.5753595618376504e-14  3.7173097261560407e-14  3.7148576609763418e-14  3.5590278626801451e-14  3.2712858559219195e-14  2.8934895587542825e-14  2.4752471885461201e-14  2.0625978653405455e-14  1.6905985791127007e-14  1.3805930141883097e-14  1.1413971754561612e-14  9.7275628749452413e-15  8.6925214991676232e-15  8.2322487197339794e-15  8.2600794005094046e-15  8.6762469606173463e-15  9.3580071952354471e-15  1.0154709803455342e-14  1.0897618192918034e-14  1.1427472168549759e-14  1.1633716786414736e-14  1.1492003669218653e-14  1.1084791780843424e-14  1.0595072123903952e-14  1.0273230765377473e-14  1.0386757199583930e-14  1.1166736547277955e-14  1.2762073030685432e-14  1.5205459787041798e-14  1.8390540020811421e-14  2.2061830213402688e-14  2.5825817765967923e-14  2.9195507318970706e-14  3.1674847046017731e-14  3.2877776613868683e-14  3.2684482570559080e-14  3.1536195990789652e-14  3.1332575034688556e-14  3.8171765157325876e-14  6.7269075227887952e-14  1.3332285033920361e-13  1.7209308518770449e-13  6.0787672674351716e-13  -1.4775699510604263e-11  2.5967576724575822e-10  -4.5292927482800006e-09  7.9221586707293806e-08  -1.3889199862349202e-06  2.4470601072690381e-05  -4.4270300904845526e-04  1.0004868640975967e-02  3.2139308730267380e-01  8.4560003651834037e-01  9.7584180721029545e-01  9.9576159351635174e-01  9.9918576844333029e-01  9.9979038041533497e-01  9.9982766146654722e-01  9.9952914940919613e-01  9.9821133908227500e-01  9.9248977211192835e-01  9.6586113663637219e-01  8.2591673918473341e-01  3.6049163254560718e-01  6.5209127224069949e-02  9.4203398862277403e-03  1.3459128804305181e-03  1.9267652987972793e-04  2.7688734687703717e-05  3.9924359108132551e-06  5.7719008606192064e-07  8.3614201138585136e-08  1.2131555709831357e-08  1.7622782865951020e-09  2.5624646511566879e-10  3.7304114867426594e-11  5.4514656714706755e-12  8.0829938339547866e-13  1.1526225550919334e-13  7.8404293659921082e-15  4.0858334737644761e-17  8.8825826864050101e-18  -3.7532536756558654e-19  2.4969403926257544e-20  -1.2294207995487586e-21  6.5506129812509348e-23  1.2695579805107923e-24  1.4556499232716095e-24  9.5890431547277786e-25  7.7917660715974713e-25  4.7548766570631199e-14  4.6394143644618633e-14  4.3197040304000637e-14  3.8683838948055764e-14  3.3843568221090328e-14  2.9671268165456778e-14  2.6927615147806320e-14  2.5976661343833396e-14  2.6734049193684209e-14  2.8726367220658896e-14  3.1236439613256150e-14  3.3491982396601777e-14  3.4847618096037717e-14  3.4914894128474224e-14  3.3612310158894152e-14  3.1133010688675554e-14  2.7852459555630346e-14  2.4212633343477088e-14  2.0618880682032529e-14  1.7373458405042571e-14  1.4652972626784132e-14  1.2522388103209096e-14  1.0969764332517229e-14  9.9441214986411848e-15  9.3826257630009065e-15  9.2205766211061008e-15  9.3860371923519575e-15  9.7877456414002996e-15  1.0307876173717246e-14  1.0809078189195430e-14  1.1158603633849710e-14  1.1263767776769833e-14  1.1106232532439449e-14  1.0761060993117477e-14  1.0391365675834408e-14  1.0218569640818287e-14  1.0477143694127407e-14  1.1366496327372282e-14  1.3009929671815932e-14  1.5424273913972398e-14  1.8499726758243944e-14  2.1991459049379580e-14  2.5530833426521871e-14  2.8667642649448421e-14  3.0950091878607306e-14  3.2043441401775644e-14  3.1924116819258090e-14  3.1432101339138042e-14  3.4575024938390855e-14  5.8072792684186827e-14  1.6337833381183698e-13  5.0915535043508162e-13  1.1178484006137949e-12  6.4280236515607745e-13  -1.3273370419552831e-11  2.7839435694120334e-10  -5.1705564823597999e-09  9.2705797115108272e-08  -1.6307841497588531e-06  2.8551124789223054e-05  -5.1517260764682440e-04  1.2713838734660296e-02  3.1699184060266267e-01  8.3478200907192512e-01  9.7236203102071639e-01  9.9465309320919870e-01  9.9877392699142564e-01  9.9956030581657829e-01  9.9956647919092045e-01  9.9899264811006350e-01  9.9672068938812164e-01  9.8764763491355068e-01  9.4796280633470154e-01  7.5399593781875607e-01  2.7030949929979453e-01  4.6674659884784205e-02  7.0843597782603669e-03  1.0517862460630799e-03  1.5502028830543851e-04  2.2788972473666033e-05  3.3464076795745029e-06  4.9110499146429057e-07  7.2044243058439398e-08  1.0565507432607705e-08  1.5490498209991446e-09  2.2706747275335504e-10  3.3292961737618393e-11  4.8974038784999453e-12  7.3359427630612238e-13  1.1264543111135100e-13  1.2075832924891264e-14  3.2293149296831998e-16  1.6301213839475893e-17  -6.8873050126932978e-20  4.5440565417594554e-20  -2.3431879127383396e-21  1.7281951831258334e-22  -9.3953894366943343e-23  -4.6849502291814485e-23  -3.3435264612851501e-23  -2.8642206556934473e-23  4.2124672530172815e-14  4.1140705106671085e-14  3.8415758768288513e-14  3.4568117285294149e-14  3.0440410412566740e-14  2.6881553304596556e-14  2.4541875341047644e-14  2.3734336789633489e-14  2.4389993348653200e-14  2.6108721332908862e-14  2.8283670766353062e-14  3.0262682213410230e-14  3.1503450400297459e-14  3.1683370812962679e-14  3.0740116563567685e-14  2.8841195408060997e-14  2.6302119240458807e-14  2.3485293873313177e-14  2.0711576737093083e-14  1.8205852604385080e-14  1.6082896559624520e-14  1.4366296810208851e-14  1.3025055711890746e-14  1.2010756172223507e-14  1.1282035786048116e-14  1.0810564583220246e-14  1.0571119971678890e-14  1.0524890353966721e-14  1.0607602364780414e-14  1.0731594058420038e-14  1.0804471695191968e-14  1.0759052894253868e-14  1.0583299798901615e-14  1.0337725544100525e-14  1.0152143368348820e-14  1.0201657355061884e-14  1.0669403845187621e-14  1.1706783844408159e-14  1.3399546086147934e-14  1.5742756796310924e-14  1.8624348470679678e-14  2.1818843203312991e-14  2.4998302178406280e-14  2.7770673739531489e-14  2.9752843012897483e-14  3.0689330170922897e-14  3.0711442425551105e-14  3.1350705232803890e-14  4.0588278519611844e-14  9.7728761273285140e-14  3.8441922842574003e-13  1.6245421770557071e-12  5.7229316800925010e-12  1.2132117432034778e-11  -2.3424938251597425e-11  5.0123131723636737e-10  -7.7117227663992096e-09  1.1772221605286173e-07  -1.8293217437620904e-06  2.9352930437679346e-05  -5.0354751552430263e-04  1.7294482538832711e-02  2.7677654955273862e-01  7.8917773182603823e-01  9.5989741120675232e-01  9.9080680006648725e-01  9.9724680896511597e-01  9.9863422396300350e-01  9.9854239563731906e-01  9.9710833705518653e-01  9.9204051027796580e-01  9.7338629340711280e-01  8.9681121508983708e-01  5.8410359079467156e-01  1.5794147098331027e-01  2.7430353580221022e-02  4.4621905041695407e-03  7.0166605385577996e-04  1.0824652940654441e-04  1.6503595904872885e-05  2.4963708072616176e-06  3.7547376662752702e-07  5.6234324449159407e-08  8.3942523024863676e-09  1.2497068145817045e-09  1.8565757845522421e-10  2.7545927764822351e-11  4.0963940841328648e-12  6.2242425349032890e-13  1.0286185009168799e-13  1.7397479756367141e-14  1.5361887796726827e-15  6.2431893278140029e-17  4.4835280629867880e-18  5.8679248545240709e-20  1.5430557170225078e-20  1.6861146142852672e-21  1.6850849193057774e-21  1.1202556592058647e-21  8.1416170247752977e-22  7.1529276916824781e-22  3.5697434001746964e-14  3.4917780365606125e-14  3.2760145298636450e-14  2.9718419522537235e-14  2.6465301751566522e-14  2.3677402121776935e-14  2.1870860757533931e-14  2.1290458550701125e-14  2.1875384850546034e-14  2.3302495147057823e-14  2.5089001875561992e-14  2.6723814479809522e-14  2.7791668655542643e-14  2.8058135464044695e-14  2.7496547682380207e-14  2.6256461246062165e-14  2.4591028756532420e-14  2.2771037945262431e-14  2.1013189206938947e-14  1.9440976509451274e-14  1.8083013373546516e-14  1.6901031206960931e-14  1.5831822457596534e-14  1.4825734301072475e-14  1.3868567021614381e-14  1.2981868024298154e-14  1.2205536625447875e-14  1.1573159220837010e-14  1.1092396438261851e-14  1.0739654080272090e-14  1.0471650136133057e-14  1.0249059438252502e-14  1.0062172178823600e-14  9.9476044115717866e-15  9.9889044215015165e-15  1.0300576550067065e-14  1.1001247081893610e-14  1.2184311409352274e-14  1.3892554225405446e-14  1.6099138762587656e-14  1.8694942934571968e-14  2.1483988067374072e-14  2.4193185132631364e-14  2.6505235140688816e-14  2.8122870362074009e-14  2.8888208636739440e-14  2.9129317433107237e-14  3.1320173789382954e-14  4.9284641203599235e-14  1.5897052338305848e-13  7.6675155854876817e-13  3.9197432923572598e-12  1.8721436081086903e-11  7.3490724990810652e-11  2.0080113187241075e-10  1.2579205404050893e-11  2.7864872683181896e-09  -3.0142963492593253e-08  3.1139293546458512e-07  -1.2459108544109804e-06  1.3392450685814554e-04  1.9860960673434808e-02  1.8269458324823040e-01  6.4734239660877935e-01  9.1820010815610587e-01  9.7731034747674683e-01  9.9138420373559644e-01  9.9472110389144219e-01  9.9430499173498121e-01  9.9010117344470239e-01  9.7618265901645451e-01  9.2945759687844198e-01  7.4521350623028437e-01  3.1851616000427690e-01  7.1195302937734323e-02  1.3542934672387714e-02  2.3871674995459536e-03  4.0291842308607338e-04  6.5914519495615287e-05  1.0546452210604212e-05  1.6603521082626064e-06  2.5824361848217997e-07  3.9793519300835604e-08  6.0870933450784112e-09  9.2566011054339765e-10  1.4009886198527354e-10  2.1132434714842026e-11  3.1907599465698613e-12  4.9356684716803225e-13  8.6505970606485284e-14  2.0192704214092731e-14  4.5825862277667577e-15  5.2043670458429657e-16  3.5946219640561143e-17  3.5451682141544131e-18  3.0562207591321902e-19  1.0397070157614753e-20  -2.1665759441119067e-20  -1.9039741534809824e-20  -1.5000656091128679e-20  -1.3531873569892122e-20  2.9102194954207552e-14  2.8535601594940972e-14  2.6972558305243503e-14  2.4784684548238799e-14  2.2475494593584651e-14  2.0546082486513381e-14  1.9369905577819893e-14  1.9110503594669292e-14  1.9700241781896265e-14  2.0879932807493362e-14  2.2283582857465348e-14  2.3542272346516213e-14  2.4377788855791137e-14  2.4660940345128738e-14  2.4420948186843165e-14  2.3807886946444195e-14  2.3024594851708667e-14  2.2252693493831809e-14  2.1596764444027876e-14  2.1062314186407943e-14  2.0570532109556359e-14  2.0000512926151224e-14  1.9241483499750975e-14  1.8235996323719461e-14  1.7000185357998967e-14  1.5616805383526623e-14  1.4207007741718435e-14  1.2893703058179976e-14  1.1770653899095430e-14  1.0887344300961935e-14  1.0252447067563704e-14  9.8514310641691392e-15  9.6691830362713591e-15  9.7078881588297820e-15  9.9936312800890289e-15  1.0570512866988845e-14  1.1485902409168592e-14  1.2772532822473826e-14  1.4431957651748492e-14  1.6421171906938043e-14  1.8642815113944998e-14  2.0941051035858566e-14  2.3108710830290808e-14  2.4913367829485867e-14  2.6151597929783463e-14  2.6768648294669575e-14  2.7299229109091705e-14  3.1254870517520906e-14  5.9287066497756114e-14  2.3337179036095224e-13  1.2700898852813261e-12  7.3036906896084591e-12  4.1366378613242701e-11  2.2387096458868091e-10  1.0876553112411716e-09  4.5319767034423242e-09  1.7208483296144294e-08  8.6928971165809516e-08  1.2621710985043663e-06  1.8996780497550795e-05  1.1899029673471790e-03  1.4191865063043554e-02  8.4870693629531882e-02  3.6343475901362526e-01  7.6775973729686398e-01  9.2632216056645644e-01  9.6643718920939670e-01  9.7687679611584544e-01  9.7528013430064064e-01  9.6105597601171466e-01  9.1638091894585760e-01  7.6800864575119243e-01  4.1181335452803858e-01  1.1846008319779240e-01  2.7250762466521666e-02  5.6787255624386537e-03  1.1005391406128083e-03  2.0111612350100919e-04  3.5224792047735904e-05  5.9711528566924865e-06  9.8713990441161053e-07  1.6005291932048882e-07  2.5557959272595366e-08  4.0319023988984341e-09  6.2983548612759257e-10  9.7607764997145925e-11  1.5036875556760022e-11  2.3152764068161817e-12  3.6627339028180492e-13  6.7735428184005012e-14  1.9481476144599862e-14  7.9986072861988916e-15  2.5556170832117336e-15  4.5135729473256086e-16  5.6223539969572262e-17  7.8731808424698951e-18  1.5994008117283847e-18  5.9468831131720922e-19  3.3964548387697707e-19  2.4806807376532757e-19  2.2284409951596956e-19  2.3054134374893209e-14  2.2687579119457661e-14  2.1686575545346509e-14  2.0317424427247273e-14  1.8935166166849501e-14  1.7881794966340852e-14  1.7393820579917219e-14  1.7545988778238705e-14  1.8244773144691948e-14  1.9269705685986825e-14  2.0347349763669075e-14  2.1234587223876563e-14  2.1786330204961433e-14  2.1988112368443754e-14  2.1945095181066969e-14  2.1832758194989852e-14  2.1826548806152209e-14  2.2034046684256954e-14  2.2451776597375160e-14  2.2960328909789122e-14  2.3358716937837453e-14  2.3425959268994090e-14  2.2989018381892069e-14  2.1974719052426632e-14  2.0429850315011448e-14  1.8505717949785008e-14  1.6415891292131569e-14  1.4383714462646481e-14  1.2596811712326297e-14  1.1180267532861306e-14  1.0191744813155551e-14  9.6341984003527618e-15  9.4774811822062816e-15  9.6797050959182985e-15  1.0201920101956138e-14  1.1013816810382816e-14  1.2091797989854619e-14  1.3412470292453154e-14  1.4944191017247598e-14  1.6638007711404017e-14  1.8419028037068445e-14  2.0180925754188417e-14  2.1788896149967038e-14  2.3097920800911083e-14  2.3996581026086503e-14  2.4524794064662235e-14  2.5391480031817008e-14  3.0988890096890049e-14  6.8035331381078011e-14  3.0163295530349297e-13  1.7578831821211060e-12  1.0822204830648215e-11  6.7239804634932757e-11  4.1798611161488699e-10  2.6033879914279478e-09  1.6334817308231764e-08  1.0709116969783200e-07  8.2730275468195908e-07  8.2641931513258314e-06  1.1305740449269886e-04  1.0917889755410757e-03  6.6580168729668283e-03  3.1416632708989485e-02  1.2591592218635694e-01  3.9308649826752484e-01  7.0312036876186113e-01  8.4381719617727491e-01  8.8510202213982403e-01  8.7851280211372074e-01  8.2152475948583914e-01  6.6468409027069020e-01  3.6996700170389130e-01  1.2936547613346874e-01  3.6355151571396384e-02  9.1217507783513778e-03  2.0889398928967432e-03  4.4319973102044516e-04  8.8220610679468818e-05  1.6646126047299781e-05  3.0107635414158384e-06  5.2644262354693921e-07  8.9598196061506320e-08  1.4922360473819281e-08  2.4420907099908636e-09  3.9397679355777551e-10  6.2820983094084080e-11  9.9285158769181771e-12  1.5660976020631443e-12  2.5497183262517507e-13  5.0132775439371425e-14  1.6918881783864511e-14  9.5226937100877886e-15  5.6286289862479065e-15  2.5938009622480342e-15  8.6403306045031139e-16  2.5460240123531727e-16  7.9876945676746390e-17  2.9290313811184652e-17  1.3316322756583010e-17  7.8768208641234516e-18  6.5178825665571528e-18  1.8032388443162309e-14  1.7837330635426882e-14  1.7322442814247782e-14  1.6674475361025531e-14  1.6133132054945854e-14  1.5910949955990963e-14  1.6124319737030633e-14  1.6758211393003475e-14  1.7674853038364643e-14  1.8662092405480994e-14  1.9505022100161657e-14  2.0057748086508850e-14  2.0292383552263324e-14  2.0309322754223335e-14  2.0304718907408863e-14  2.0504408014374841e-14  2.1084213865481184e-14  2.2101359051951744e-14  2.3459127871022515e-14  2.4917527582798197e-14  2.6148803672221726e-14  2.6822176550322597e-14  2.6691998613740800e-14  2.5662025783161883e-14  2.3807011280723477e-14  2.1348186218015583e-14  1.8594770976586759e-14  1.5872914088675970e-14  1.3463471741817307e-14  1.1562635129495543e-14  1.0269260398503497e-14  9.5943618476233045e-15  9.4839085873449523e-15  9.8457682716970198e-15  1.0573946924406082e-14  1.1566466400578325e-14  1.2735934096495502e-14  1.4013375469040496e-14  1.5346301834720405e-14  1.6692075320467253e-14  1.8008399473419163e-14  1.9244522371079783e-14  2.0338625898272726e-14  2.1227876424850821e-14  2.1881965563910172e-14  2.2414676923279386e-14  2.3637288351732065e-14  3.0411469854795017e-14  7.2851182334036930e-14  3.4152797750059496e-13  2.0549271792572260e-12  1.3071815515847941e-11  8.4631779974484906e-11  5.5625603256550056e-10  3.7318322406131265e-09  2.5852836111526040e-08  1.8868733954932245e-07  1.4742071615739578e-06  1.2302412941979874e-05  9.0812944553947275e-05  5.2086335360707287e-04  2.4331113236038550e-03  9.7932779990267255e-03  3.4445312343882810e-02  1.0311664154629804e-01  2.4529366463874697e-01  4.0871411828451970e-01  4.9915582507271078e-01  4.8329324364174875e-01  3.7131964741503776e-01  2.1417394072686921e-01  9.1159898871986042e-02  3.2159354238104169e-02  9.8982538691009692e-03  2.7262101019789780e-03  6.8508992953333035e-04  1.5895131241953176e-04  3.4407419864385593e-05  7.0170749056665828e-06  1.3603638682192495e-06  2.5293688668283579e-07  4.5442237515243316e-08  7.9372883095172236e-09  1.3546193997336049e-09  2.2680224808996188e-10  3.7380288885088712e-11  6.0875881007602327e-12  9.8871380456310823e-13  1.6718540421375216e-13  3.5660148261221054e-14  1.4064047200074010e-14  9.5417339119329962e-15  7.4380565840072215e-15  5.5920281646404425e-15  3.8666598111906684e-15  2.4587517060827010e-15  1.4926925813357343e-15  9.4940325191697855e-16  6.8166026208535486e-16  5.6058958161059195e-16  5.2551924163679531e-16  1.4236470003565616e-14  1.4176189609743501e-14  1.4047660308928268e-14  1.3986089612848027e-14  1.4152979176538103e-14  1.4666785104792163e-14  1.5547509880585493e-14  1.6696270394462247e-14  1.7918075642602926e-14  1.8981086115134901e-14  1.9693387233365934e-14  1.9972236401872292e-14  1.9882420093675569e-14  1.9629302382653195e-14  1.9505773218056061e-14  1.9806509100637980e-14  2.0733475498176904e-14  2.2320443698439758e-14  2.4400396901782264e-14  2.6628717355153327e-14  2.8