<?xml version="1.0"?>
<VTKFile type="UnstructuredGrid"  version="0.1"  >
<UnstructuredGrid>
<Piece  NumberOfPoints="20201" NumberOfCells="40000">
<Points>
<DataArray  type="Float64"  NumberOfComponents="3"  format="ascii">0 0 0  2 0 0  4 0 0  6 0 0  8 0 0  10 0 0  12 0 0  14 0 0  16 0 0  18 0 0  20 0 0  22 0 0  24 0 0  26 0 0  28 0 0  30 0 0  32 0 0  34 0 0  36 0 0  38 0 0  40 0 0  42 0 0  44 0 0  46 0 0  48 0 0  50 0 0  52 0 0  54 0 0  56 0 0  58 0 0  60 0 0  62 0 0  64 0 0  66 0 0  68 0 0  70 0 0  72 0 0  74 0 0  76 0 0  78 0 0  80 0 0  82 0 0  84 0 0  86 0 0  88 0 0  90 0 0  92 0 0  94 0 0  96 0 0  98 0 0  100 0 0  102 0 0  104 0 0  106 0 0  108 0 0  110 0 0  112 0 0  114 0 0  116 0 0  118 0 0  120 0 0  122 0 0  124 0 0  126 0 0  128 0 0  130 0 0  132 0 0  134 0 0  136 0 0  138 0 0  140 0 0  142 0 0  144 0 0  146 0 0  148 0 0  150 0 0  152 0 0  154 0 0  156 0 0  158 0 0  160 0 0  162 0 0  164 0 0  166 0 0  168 0 0  170 0 0  172 0 0  174 0 0  176 0 0  178 0 0  180 0 0  182 0 0  184 0 0  186 0 0  188 0 0  190 0 0  192 0 0  194 0 0  196 0 0  198 0 0  200 0 0  0 2 0  2 2 0  4 2 0  6 2 0  8 2 0  10 2 0  12 2 0  14 2 0  16 2 0  18 2 0  20 2 0  22 2 0  24 2 0  26 2 0  28 2 0  30 2 0  32 2 0  34 2 0  36 2 0  38 2 0  40 2 0  42 2 0  44 2 0  46 2 0  48 2 0  50 2 0  52 2 0  54 2 0  56 2 0  58 2 0  60 2 0  62 2 0  64 2 0  66 2 0  68 2 0  70 2 0  72 2 0  74 2 0  76 2 0  78 2 0  80 2 0  82 2 0  84 2 0  86 2 0  88 2 0  90 2 0  92 2 0  94 2 0  96 2 0  98 2 0  100 2 0  102 2 0  104 2 0  106 2 0  108 2 0  110 2 0  112 2 0  114 2 0  116 2 0  118 2 0  120 2 0  122 2 0  124 2 0  126 2 0  128 2 0  130 2 0  132 2 0  134 2 0  136 2 0  138 2 0  140 2 0  142 2 0  144 2 0  146 2 0  148 2 0  150 2 0  152 2 0  154 2 0  156 2 0  158 2 0  160 2 0  162 2 0  164 2 0  166 2 0  168 2 0  170 2 0  172 2 0  174 2 0  176 2 0  178 2 0  180 2 0  182 2 0  184 2 0  186 2 0  188 2 0  190 2 0  192 2 0  194 2 0  196 2 0  198 2 0  200 2 0  0 4 0  2 4 0  4 4 0  6 4 0  8 4 0  10 4 0  12 4 0  14 4 0  16 4 0  18 4 0  20 4 0  22 4 0  24 4 0  26 4 0  28 4 0  30 4 0  32 4 0  34 4 0  36 4 0  38 4 0  40 4 0  42 4 0  44 4 0  46 4 0  48 4 0  50 4 0  52 4 0  54 4 0  56 4 0  58 4 0  60 4 0  62 4 0  64 4 0  66 4 0  68 4 0  70 4 0  72 4 0  74 4 0  76 4 0  78 4 0  80 4 0  82 4 0  84 4 0  86 4 0  88 4 0  90 4 0  92 4 0  94 4 0  96 4 0  98 4 0  100 4 0  102 4 0  104 4 0  106 4 0  108 4 0  110 4 0  112 4 0  114 4 0  116 4 0  118 4 0  120 4 0  122 4 0  124 4 0  126 4 0  128 4 0  130 4 0  132 4 0  134 4 0  136 4 0  138 4 0  140 4 0  142 4 0  144 4 0  146 4 0  148 4 0  150 4 0  152 4 0  154 4 0  156 4 0  158 4 0  160 4 0  162 4 0  164 4 0  166 4 0  168 4 0  170 4 0  172 4 0  174 4 0  176 4 0  178 4 0  180 4 0  182 4 0  184 4 0  186 4 0  188 4 0  190 4 0  192 4 0  194 4 0  196 4 0  198 4 0  200 4 0  0 6 0  2 6 0  4 6 0  6 6 0  8 6 0  10 6 0  12 6 0  14 6 0  16 6 0  18 6 0  20 6 0  22 6 0  24 6 0  26 6 0  28 6 0  30 6 0  32 6 0  34 6 0  36 6 0  38 6 0  40 6 0  42 6 0  44 6 0  46 6 0  48 6 0  50 6 0  52 6 0  54 6 0  56 6 0  58 6 0  60 6 0  62 6 0  64 6 0  66 6 0  68 6 0  70 6 0  72 6 0  74 6 0  76 6 0  78 6 0  80 6 0  82 6 0  84 6 0  86 6 0  88 6 0  90 6 0  92 6 0  94 6 0  96 6 0  98 6 0  100 6 0  102 6 0  104 6 0  106 6 0  108 6 0  110 6 0  112 6 0  114 6 0  116 6 0  118 6 0  120 6 0  122 6 0  124 6 0  126 6 0  128 6 0  130 6 0  132 6 0  134 6 0  136 6 0  138 6 0  140 6 0  142 6 0  144 6 0  146 6 0  148 6 0  150 6 0  152 6 0  154 6 0  156 6 0  158 6 0  160 6 0  162 6 0  164 6 0  166 6 0  168 6 0  170 6 0  172 6 0  174 6 0  176 6 0  178 6 0  180 6 0  182 6 0  184 6 0  186 6 0  188 6 0  190 6 0  192 6 0  194 6 0  196 6 0  198 6 0  200 6 0  0 8 0  2 8 0  4 8 0  6 8 0  8 8 0  10 8 0  12 8 0  14 8 0  16 8 0  18 8 0  20 8 0  22 8 0  24 8 0  26 8 0  28 8 0  30 8 0  32 8 0  34 8 0  36 8 0  38 8 0  40 8 0  42 8 0  44 8 0  46 8 0  48 8 0  50 8 0  52 8 0  54 8 0  56 8 0  58 8 0  60 8 0  62 8 0  64 8 0  66 8 0  68 8 0  70 8 0  72 8 0  74 8 0  76 8 0  78 8 0  80 8 0  82 8 0  84 8 0  86 8 0  88 8 0  90 8 0  92 8 0  94 8 0  96 8 0  98 8 0  100 8 0  102 8 0  104 8 0  106 8 0  108 8 0  110 8 0  112 8 0  114 8 0  116 8 0  118 8 0  120 8 0  122 8 0  124 8 0  126 8 0  128 8 0  130 8 0  132 8 0  134 8 0  136 8 0  138 8 0  140 8 0  142 8 0  144 8 0  146 8 0  148 8 0  150 8 0  152 8 0  154 8 0  156 8 0  158 8 0  160 8 0  162 8 0  164 8 0  166 8 0  168 8 0  170 8 0  172 8 0  174 8 0  176 8 0  178 8 0  180 8 0  182 8 0  184 8 0  186 8 0  188 8 0  190 8 0  192 8 0  194 8 0  196 8 0  198 8 0  200 8 0  0 10 0  2 10 0  4 10 0  6 10 0  8 10 0  10 10 0  12 10 0  14 10 0  16 10 0  18 10 0  20 10 0  22 10 0  24 10 0  26 10 0  28 10 0  30 10 0  32 10 0  34 10 0  36 10 0  38 10 0  40 10 0  42 10 0  44 10 0  46 10 0  48 10 0  50 10 0  52 10 0  54 10 0  56 10 0  58 10 0  60 10 0  62 10 0  64 10 0  66 10 0  68 10 0  70 10 0  72 10 0  74 10 0  76 10 0  78 10 0  80 10 0  82 10 0  84 10 0  86 10 0  88 10 0  90 10 0  92 10 0  94 10 0  96 10 0  98 10 0  100 10 0  102 10 0  104 10 0  106 10 0  108 10 0  110 10 0  112 10 0  114 10 0  116 10 0  118 10 0  120 10 0  122 10 0  124 10 0  126 10 0  128 10 0  130 10 0  132 10 0  134 10 0  136 10 0  138 10 0  140 10 0  142 10 0  144 10 0  146 10 0  148 10 0  150 10 0  152 10 0  154 10 0  156 10 0  158 10 0  160 10 0  162 10 0  164 10 0  166 10 0  168 10 0  170 10 0  172 10 0  174 10 0  176 10 0  178 10 0  180 10 0  182 10 0  184 10 0  186 10 0  188 10 0  190 10 0  192 10 0  194 10 0  196 10 0  198 10 0  200 10 0  0 12 0  2 12 0  4 12 0  6 12 0  8 12 0  10 12 0  12 12 0  14 12 0  16 12 0  18 12 0  20 12 0  22 12 0  24 12 0  26 12 0  28 12 0  30 12 0  32 12 0  34 12 0  36 12 0  38 12 0  40 12 0  42 12 0  44 12 0  46 12 0  48 12 0  50 12 0  52 12 0  54 12 0  56 12 0  58 12 0  60 12 0  62 12 0  64 12 0  66 12 0  68 12 0  70 12 0  72 12 0  74 12 0  76 12 0  78 12 0  80 12 0  82 12 0  84 12 0  86 12 0  88 12 0  90 12 0  92 12 0  94 12 0  96 12 0  98 12 0  100 12 0  102 12 0  104 12 0  106 12 0  108 12 0  110 12 0  112 12 0  114 12 0  116 12 0  118 12 0  120 12 0  122 12 0  124 12 0  126 12 0  128 12 0  130 12 0  132 12 0  134 12 0  136 12 0  138 12 0  140 12 0  142 12 0  144 12 0  146 12 0  148 12 0  150 12 0  152 12 0  154 12 0  156 12 0  158 12 0  160 12 0  162 12 0  164 12 0  166 12 0  168 12 0  170 12 0  172 12 0  174 12 0  176 12 0  178 12 0  180 12 0  182 12 0  184 12 0  186 12 0  188 12 0  190 12 0  192 12 0  194 12 0  196 12 0  198 12 0  200 12 0  0 14 0  2 14 0  4 14 0  6 14 0  8 14 0  10 14 0  12 14 0  14 14 0  16 14 0  18 14 0  20 14 0  22 14 0  24 14 0  26 14 0  28 14 0  30 14 0  32 14 0  34 14 0  36 14 0  38 14 0  40 14 0  42 14 0  44 14 0  46 14 0  48 14 0  50 14 0  52 14 0  54 14 0  56 14 0  58 14 0  60 14 0  62 14 0  64 14 0  66 14 0  68 14 0  70 14 0  72 14 0  74 14 0  76 14 0  78 14 0  80 14 0  82 14 0  84 14 0  86 14 0  88 14 0  90 14 0  92 14 0  94 14 0  96 14 0  98 14 0  100 14 0  102 14 0  104 14 0  106 14 0  108 14 0  110 14 0  112 14 0  114 14 0  116 14 0  118 14 0  120 14 0  122 14 0  124 14 0  126 14 0  128 14 0  130 14 0  132 14 0  134 14 0  136 14 0  138 14 0  140 14 0  142 14 0  144 14 0  146 14 0  148 14 0  150 14 0  152 14 0  154 14 0  156 14 0  158 14 0  160 14 0  162 14 0  164 14 0  166 14 0  168 14 0  170 14 0  172 14 0  174 14 0  176 14 0  178 14 0  180 14 0  182 14 0  184 14 0  186 14 0  188 14 0  190 14 0  192 14 0  194 14 0  196 14 0  198 14 0  200 14 0  0 16 0  2 16 0  4 16 0  6 16 0  8 16 0  10 16 0  12 16 0  14 16 0  16 16 0  18 16 0  20 16 0  22 16 0  24 16 0  26 16 0  28 16 0  30 16 0  32 16 0  34 16 0  36 16 0  38 16 0  40 16 0  42 16 0  44 16 0  46 16 0  48 16 0  50 16 0  52 16 0  54 16 0  56 16 0  58 16 0  60 16 0  62 16 0  64 16 0  66 16 0  68 16 0  70 16 0  72 16 0  74 16 0  76 16 0  78 16 0  80 16 0  82 16 0  84 16 0  86 16 0  88 16 0  90 16 0  92 16 0  94 16 0  96 16 0  98 16 0  100 16 0  102 16 0  104 16 0  106 16 0  108 16 0  110 16 0  112 16 0  114 16 0  116 16 0  118 16 0  120 16 0  122 16 0  124 16 0  126 16 0  128 16 0  130 16 0  132 16 0  134 16 0  136 16 0  138 16 0  140 16 0  142 16 0  144 16 0  146 16 0  148 16 0  150 16 0  152 16 0  154 16 0  156 16 0  158 16 0  160 16 0  162 16 0  164 16 0  166 16 0  168 16 0  170 16 0  172 16 0  174 16 0  176 16 0  178 16 0  180 16 0  182 16 0  184 16 0  186 16 0  188 16 0  190 16 0  192 16 0  194 16 0  196 16 0  198 16 0  200 16 0  0 18 0  2 18 0  4 18 0  6 18 0  8 18 0  10 18 0  12 18 0  14 18 0  16 18 0  18 18 0  20 18 0  22 18 0  24 18 0  26 18 0  28 18 0  30 18 0  32 18 0  34 18 0  36 18 0  38 18 0  40 18 0  42 18 0  44 18 0  46 18 0  48 18 0  50 18 0  52 18 0  54 18 0  56 18 0  58 18 0  60 18 0  62 18 0  64 18 0  66 18 0  68 18 0  70 18 0  72 18 0  74 18 0  76 18 0  78 18 0  80 18 0  82 18 0  84 18 0  86 18 0  88 18 0  90 18 0  92 18 0  94 18 0  96 18 0  98 18 0  100 18 0  102 18 0  104 18 0  106 18 0  108 18 0  110 18 0  112 18 0  114 18 0  116 18 0  118 18 0  120 18 0  122 18 0  124 18 0  126 18 0  128 18 0  130 18 0  132 18 0  134 18 0  136 18 0  138 18 0  140 18 0  142 18 0  144 18 0  146 18 0  148 18 0  150 18 0  152 18 0  154 18 0  156 18 0  158 18 0  160 18 0  162 18 0  164 18 0  166 18 0  168 18 0  170 18 0  172 18 0  174 18 0  176 18 0  178 18 0  180 18 0  182 18 0  184 18 0  186 18 0  188 18 0  190 18 0  192 18 0  194 18 0  196 18 0  198 18 0  200 18 0  0 20 0  2 20 0  4 20 0  6 20 0  8 20 0  10 20 0  12 20 0  14 20 0  16 20 0  18 20 0  20 20 0  22 20 0  24 20 0  26 20 0  28 20 0  30 20 0  32 20 0  34 20 0  36 20 0  38 20 0  40 20 0  42 20 0  44 20 0  46 20 0  48 20 0  50 20 0  52 20 0  54 20 0  56 20 0  58 20 0  60 20 0  62 20 0  64 20 0  66 20 0  68 20 0  70 20 0  72 20 0  74 20 0  76 20 0  78 20 0  80 20 0  82 20 0  84 20 0  86 20 0  88 20 0  90 20 0  92 20 0  94 20 0  96 20 0  98 20 0  100 20 0  102 20 0  104 20 0  106 20 0  108 20 0  110 20 0  112 20 0  114 20 0  116 20 0  118 20 0  120 20 0  122 20 0  124 20 0  126 20 0  128 20 0  130 20 0  132 20 0  134 20 0  136 20 0  138 20 0  140 20 0  142 20 0  144 20 0  146 20 0  148 20 0  150 20 0  152 20 0  154 20 0  156 20 0
[...]
<PointData  Scalars="f_271-4"> 
<DataArray  type="Float64"  Name="f_271-4"  format="ascii">1.1967068838639738e-08  1.1484776231919298e-08  1.0170055346753673e-08  8.3713842907127910e-09  6.5348074944583491e-09  5.0708295726326383e-09  4.2558467489352276e-09  4.1862726428294073e-09  4.7786966721767306e-09  5.8039613087051754e-09  6.9478972146696394e-09  7.8909068650265616e-09  8.3886561570207057e-09  8.3278169713703242e-09  7.7369198027692875e-09  6.7525668734366260e-09  5.5613366167648763e-09  4.3437504073453776e-09  3.2377058013310567e-09  2.3249629395510180e-09  1.6353060878877256e-09  1.1608285265253971e-09  8.7388084050561240e-10  7.4341317375529863e-10  7.4538695705776349e-10  8.6466932028188645e-10  1.0887313682035351e-09  1.3967565049962778e-09  1.7501146807617292e-09  2.0904093483385095e-09  2.3487939066064022e-09  2.4652617229767666e-09  2.4109298405981672e-09  2.2031029711236096e-09  1.9048978351706534e-09  1.6083965839141484e-09  1.4089544680337491e-09  1.3829189861416196e-09  1.5778741331462787e-09  2.0146098116029988e-09  2.6901003594791450e-09  3.5701650284507708e-09  4.5726621539115837e-09  5.5578943106565549e-09  6.3462166971511071e-09  6.7667962684524042e-09  6.7175673372366325e-09  6.2045753042064329e-09  5.3391344905900187e-09  4.2956548515065772e-09  3.2536417101529973e-09  2.3510629170917824e-09  1.6629556813710537e-09  1.1950407453589740e-09  8.4498923588688796e-10  4.1754782957810715e-10  9.2175768159946128e-10  -1.7134028375578520e-08  3.0211358670828311e-07  -5.1560091163546543e-06  8.7471010146946112e-05  -1.5899565179855926e-03  1.5983800261505901e-01  7.5167064433775854e-01  9.6048085489430868e-01  9.9259859817938456e-01  9.9821964900272375e-01  9.9896579791778883e-01  9.9773968708505034e-01  9.9191179125192441e-01  9.6664670504937344e-01  8.4352829129985651e-01  4.0699719462305134e-01  7.7654110009691038e-02  1.0840628650255434e-02  1.4870805180314628e-03  2.0525150236556128e-04  2.8537723979177371e-05  3.9916850699700630e-06  5.6134207606089678e-07  7.9734081603640115e-08  1.2006722927458546e-08  2.7363995448885255e-09  1.9384708226689369e-09  2.5963336617753985e-09  3.7190003191605819e-09  5.0897850090358883e-09  6.4846081507218084e-09  7.5307939905963182e-09  7.6525247881667146e-09  5.9892758115911547e-09  2.3240251260370061e-09  2.1001712836848067e-10  3.2110592338569167e-12  7.3460924133689287e-14  8.0681464602286608e-16  -5.5338504467331745e-17  1.1554506942534468e-17  9.4771599708455516e-18  8.2602810480363851e-18  7.9404796777674232e-18  1.1561685696110403e-08  1.1099593609430759e-08  9.8391064207967190e-09  8.1122798032904616e-09  6.3450977614094540e-09  4.9310278134005693e-09  4.1366713353252803e-09  4.0571222877645004e-09  4.6152471972635026e-09  5.5936607426553464e-09  6.6924769368695718e-09  7.6052993553592101e-09  8.0965221896813234e-09  8.0551039255010171e-09  7.5056723560848234e-09  6.5769159495678805e-09  5.4463821080764110e-09  4.2867834540877473e-09  3.2306123971354349e-09  2.3567756988768518e-09  1.6943112091682171e-09  1.2360044413286915e-09  9.5564368125874584e-10  8.2375890494890933e-10  8.1762912837035591e-10  9.2306621560946512e-10  1.1283200915444877e-09  1.4136207680010503e-09  1.7421086885377693e-09  2.0580966082941589e-09  2.2961446026475716e-09  2.3996188985250031e-09  2.3419849956551107e-09  2.1410520935572151e-09  1.8583551911695985e-09  1.5827692609783649e-09  1.4057301873372116e-09  1.3998482858205452e-09  1.6096467504074182e-09  2.0535959630018565e-09  2.7270690700813610e-09  3.5953055309080369e-09  4.5772811910168315e-09  5.5366636013775739e-09  6.2991502700397860e-09  6.6998765180856597e-09  6.6414402976916758e-09  6.1317123880797004e-09  5.2806471066371834e-09  4.2590407018018873e-09  3.2421607039029910e-09  2.3647653243882408e-09  1.7017077391918273e-09  1.2671939444759231e-09  9.8515228600714926e-10  5.5770347263633783e-10  1.2103722040472815e-09  -1.6609472616940052e-08  2.4190357287927944e-07  -3.5514564068851374e-06  5.3474213468360471e-05  -8.4517402583775031e-04  1.6332695249415644e-01  7.4078582789855618e-01  9.5590177287315736e-01  9.9103513157063761e-01  9.9749515761376994e-01  9.9835127362187703e-01  9.9671741381796941e-01  9.8938540021217769e-01  9.5881536907661180e-01  8.1467751678353395e-01  3.5936388290382509e-01  6.6591685784918281e-02  9.5863130769399830e-03  1.3438805177118161e-03  1.8823774491025371e-04  2.6455885975814018e-05  3.7313005097637050e-06  5.2829048332156344e-07  7.5539941270121028e-08  1.1510106096132996e-08  2.6960205166743073e-09  1.9232356012536583e-09  2.5382318076838424e-09  3.5976419475243777e-09  4.8950707258337707e-09  6.2187110412067184e-09  7.2195423368824416e-09  7.3695767392842076e-09  5.9129011440727096e-09  2.5452857225737518e-09  2.8342355066675233e-10  6.8883131918593824e-12  1.7737343553087923e-13  5.6432637762935814e-15  -4.4004530778171240e-17  2.0017501688772438e-17  -6.0456825997049931e-17  -5.7530766536894554e-17  -5.6437958002581886e-17  1.0427779519914423e-08  1.0021696556542566e-08  8.9118892445161243e-09  7.3855529821086604e-09  5.8135515009987413e-09  4.5420411550118196e-09  3.8097892464848345e-09  3.7072085174348923e-09  4.1735341952215392e-09  5.0232514907109227e-09  5.9957795255666708e-09  6.8216242232466364e-09  7.2902691772521874e-09  7.2982908316951890e-09  6.8608053263032576e-09  6.0855177137206408e-09  5.1252936739742805e-09  4.1309085322417488e-09  3.2190660114456991e-09  2.4596615268616997e-09  1.8785043795168630e-09  1.4693044142665050e-09  1.2091860848291875e-09  1.0728612888862684e-09  1.0415222919342632e-09  1.1042270967957407e-09  1.2522212235864799e-09  1.4695066345156411e-09  1.7248809371150333e-09  1.9706801578076363e-09  2.1511200354912421e-09  2.2188203924346244e-09  2.1534019973246111e-09  1.9735529534056732e-09  1.7358515983440823e-09  1.5197613438471338e-09  1.4054575590688212e-09  1.4549528074059338e-09  1.7041937631076655e-09  2.1652409866220205e-09  2.8291490127777728e-09  3.6598160236708517e-09  4.5798057643505294e-09  5.4628481362377944e-09  6.1503086109505292e-09  6.4946050245844441e-09  6.4116336750812896e-09  5.9142251148959601e-09  5.1080850036496515e-09  4.1533482290227114e-09  3.2129230338473595e-09  2.4121988811489551e-09  1.8255650689711853e-09  1.4965379664786021e-09  1.4864073139066746e-09  1.7527030505335756e-09  1.5969970253802487e-10  2.2454765154133069e-08  -3.4648020719550232e-07  5.3731473344391758e-06  -8.6638615968705153e-05  2.2769687272800850e-03  1.5334964835644235e-01  6.7497323355507532e-01  9.3368991273888291e-01  9.8349353075609081e-01  9.9381874543837312e-01  9.9516922915286299e-01  9.9178285719811432e-01  9.7794578045409553e-01  9.2541083026870841e-01  7.0059193202072179e-01  2.3921576882189685e-01  4.2910668367186787e-02  6.6888136928704382e-03  9.9491771383968365e-04  1.4541302377400089e-04  2.1093398994739218e-05  3.0489832186822815e-06  4.4054314660442426e-07  6.4316372099867002e-08  1.0196040894983390e-08  2.6094005980866050e-09  1.8981121826872798e-09  2.3901159088118094e-09  3.2724745620696216e-09  4.3671394448543461e-09  5.4948785745818316e-09  6.3674230260509086e-09  6.5712350579720948e-09  5.5793796975753675e-09  3.0416984212360539e-09  5.9021024730925255e-10  3.1839154299610995e-11  1.4051338957747309e-12  3.4545347314249040e-14  4.2508091343082000e-15  1.6915042115297851e-16  5.8947996115893190e-16  6.6483659600867689e-16  6.7176096041528223e-16  8.7862907287911777e-09  8.4599315401011526e-09  7.5655000269198328e-09  6.3283156203503249e-09  5.0423034273231013e-09  3.9861533544639374e-09  3.3570978991007025e-09  3.2358752751001641e-09  3.5818810070646187e-09  4.2525554432915022e-09  5.0422403937042740e-09  5.7347382454242758e-09  6.1578088578951220e-09  6.2226678395058868e-09  5.9348799793809835e-09  5.3753211010339459e-09  4.6630193007362698e-09  3.9168584142116817e-09  3.2287450987405234e-09  2.6523803834495706e-09  2.2053061859075495e-09  1.8793190991512997e-09  1.6541458657357778e-09  1.5097796189732173e-09  1.4338240615259381e-09  1.4219967514366566e-09  1.4725015670040116e-09  1.5774665980805763e-09  1.7160584982524318e-09  1.8535634242157765e-09  1.9485126725873929e-09  1.9663172071395640e-09  1.8941983772764286e-09  1.7504485278511810e-09  1.5828016279202868e-09  1.4557094540403562e-09  1.4321088596582896e-09  1.5582323121083854e-09  1.8576214508419209e-09  2.3334235349746599e-09  2.9711143058304944e-09  3.7336858982066911e-09  4.5503871796362646e-09  5.3114119816559681e-09  5.8827806595668376e-09  6.1434400751396770e-09  6.0291168021656314e-09  5.5593575466756142e-09  4.8325117990377086e-09  3.9918265066439109e-09  3.1809782239421119e-09  2.5106400317895414e-09  2.0540389370423557e-09  1.9073963543066025e-09  2.4825758989201619e-09  5.5311305424466865e-09  1.5480430335348604e-08  5.1276317017278923e-08  -2.0509497758127424e-07  7.4628821705911287e-06  -6.8909094914911800e-05  7.0639023845235557e-03  1.0275180425097535e-01  4.7953434909411558e-01  8.5222675447653284e-01  9.5531907417117989e-01  9.7866426821501185e-01  9.8186959680773178e-01  9.7257779277327128e-01  9.3821895466888716e-01  8.1219423791053047e-01  4.4561116778934023e-01  1.1511504499847333e-01  2.1905807408978427e-02  3.7633314589080708e-03  6.0920002052074023e-04  9.5037101814300716e-05  1.4497218517617536e-05  2.1808813675064037e-06  3.2600375619957012e-07  4.9450711396133362e-08  8.5096302479181669e-09  2.5647767408817665e-09  1.9156954111911537e-09  2.2188800065946231e-09  2.8428130618935736e-09  3.6493361804581109e-09  4.5017650141650750e-09  5.1865805402489996e-09  5.4164166394633882e-09  4.8736791304744759e-09  3.3362568081903570e-09  1.2540224386225688e-09  1.7720034745894877e-10  1.2284018535087788e-11  1.0466315469202927e-12  9.9024351253363136e-14  1.5048801485297120e-14  -7.1840533339954443e-16  -4.5664867476799407e-15  -5.2863401451862530e-15  6.9305486676893453e-09  6.6921908754641142e-09  6.0370569253569277e-09  5.1256609932072997e-09  4.1698293778092072e-09  3.3738305846833790e-09  2.8858856704960472e-09  2.7707289127067425e-09  3.0041920882997283e-09  3.4864339177041383e-09  4.0701520778133094e-09  4.5989832772500359e-09  4.9473051160612643e-09  5.0492967888772619e-09  4.9074164875336877e-09  4.5789263939898460e-09  4.1484980237862172e-09  3.6991723187325299e-09  3.2915195957640169e-09  2.9550655983422131e-09  2.6909967975949059e-09  2.4824212804067542e-09  2.3074666984327792e-09  2.1505205815280580e-09  2.0079816521680669e-09  1.8870914129267253e-09  1.7991618369524089e-09  1.7507035902704744e-09  1.7367181075116065e-09  1.7395310761352051e-09  1.7343344891998195e-09  1.6997203493506549e-09  1.6289312788931891e-09  1.5365875339395760e-09  1.4572008733189136e-09  1.4355658464871639e-09  1.5133282124807553e-09  1.7181029841096491e-09  2.0596139524258413e-09  2.5319730756728503e-09  3.1160843716956844e-09  3.7762821889030817e-09  4.4523117775891916e-09  5.0562424008431099e-09  5.4849967318468636e-09  5.6495836973074466e-09  5.5087363266468064e-09  5.0887090113666321e-09  4.4777164858839927e-09  3.7978562862975613e-09  3.1691334928371689e-09  2.6835583140371475e-09  2.4104821501972640e-09  2.5088230476452966e-09  3.9037122935421545e-09  1.2255257927328743e-08  6.0423130589815358e-08  3.2454202305809561e-07  2.2719853159873378e-06  1.9443473542876952e-05  4.9418348008653892e-04  7.0799799937198036e-03  4.6990471244795544e-02  2.1377346812554385e-01  5.8688423883184515e-01  8.3479955256893801e-01  9.1073826166278882e-01  9.2172618458012945e-01  8.9044781602157697e-01  7.7786094592079469e-01  4.9359794210383429e-01  1.7361531546349127e-01  4.2802870280019806e-02  9.1489649399929904e-03  1.7552154803285318e-03  3.1300382587936691e-04  5.2946572576743767e-05  8.6238451198689942e-06  1.3690989141459654e-06  2.1484144243755975e-07  3.4761468217279905e-08  6.9683063214200967e-09  2.6655522673003047e-09  2.0374653018947769e-09  2.1036160063832831e-09  2.4268316403065869e-09  2.9124371479885787e-09  3.4650326733109050e-09  3.9381284866692853e-09  4.1454164995295365e-09  3.9038957215365394e-09  3.1086237278396510e-09  1.8528493798141855e-09  6.5898971007281885e-10  1.2747726251147092e-10  1.9488114945665222e-11  3.4298705082566706e-12  6.9479771229306310e-13  1.7349783330927631e-13  6.3449816262004731e-14  4.2492900233387994e-14  5.1465832866178092e-09  4.9903181605815814e-09  4.5605492844915386e-09  3.9622213295631394e-09  3.3347874143982207e-09  2.8136660967801799e-09  2.4973803869191945e-09  2.4283361291564630e-09  2.5890927549661114e-09  2.9122555717672432e-09  3.3008656954139435e-09  3.6550355655160617e-09  3.8983585369631080e-09  3.9960699340062377e-09  3.9588024373239641e-09  3.8313212908231478e-09  3.6717542362037560e-09  3.5298729376962265e-09  3.4318515939934813e-09  3.3753419072145918e-09  3.3348968424479133e-09  3.2747750797134582e-09  3.1641397748273100e-09  2.9890362210150672e-09  2.7569093914029286e-09  2.4926133719051277e-09  2.2284243514720901e-09  1.9927064404176415e-09  1.8017754878158717e-09  1.6576611256787122e-09  1.5519707977226206e-09  1.4737984060171313e-09  1.4181528357237119e-09  1.3911697294660184e-09  1.4097124898340465e-09  1.4955753119944728e-09  1.6672440603358333e-09  1.9334416835788064e-09  2.2913100351767820e-09  2.7284499114299089e-09  3.2246864489386624e-09  3.7497407696118879e-09  4.2579122506335055e-09  4.6865800136178051e-09  4.9657823784600710e-09  5.0392545313016027e-09  4.8879950307930148e-09  4.5434348669261909e-09  4.0821139529630740e-09  3.6038778611996532e-09  3.2040961765743441e-09  2.9540739024509836e-09  2.9132746912674490e-09  3.2827711888304485e-09  5.4250794095920007e-09  1.8746032809544637e-08  1.0907726226317609e-07  7.7369808835426428e-07  6.1460805850801603e-06  5.9948193601319007e-05  5.5093914570720581e-04  3.5103993591183943e-03  1.6732439824952598e-02  6.4123951405150759e-02  2.0241571933350416e-01  4.3472964950761211e-01  6.0787883649564900e-01  6.4493998371998340e-01  5.5452371430206659e-01  3.5071316174621386e-01  1.5056782330298416e-01  4.8650405984942684e-02  1.3414855918831679e-02  3.2111076553901921e-03  6.9339184956202459e-04  1.3722323049036837e-04  2.5399390928210005e-05  4.4671972892377274e-06  7.5783026659294028e-07  1.2714517351194299e-07  2.3003752840431635e-08  5.9609976484028272e-09  2.9858383846265907e-09  2.3067591757521774e-09  2.1047519698823874e-09  2.1189686421292588e-09  2.2950519336583944e-09  2.5697259563676429e-09  2.8437180804589437e-09  2.9957157801923467e-09  2.9152254807333409e-09  2.5461370406255207e-09  1.9258486839538682e-09  1.1956126717258986e-09  5.8089887485537293e-10  2.3547974916024259e-10  9.9992132271322904e-11  5.0990068857145389e-11  3.1430292106734425e-11  2.3456554096706626e-11  2.1275940865596223e-11  3.6489092030809315e-09  3.5590717223901740e-09  3.3142240677600291e-09  2.9803395417881313e-09  2.6438366703809221e-09  2.3858470716029362e-09  2.2604849624212125e-09  2.2831647053449930e-09  2.4307236140085080e-09  2.6517218223976453e-09  2.8834838432114623e-09  3.0714089880119976e-09  3.1852613101965134e-09  3.2272913433128415e-09  3.2292081407727532e-09  3.2389160390339183e-09  3.3016819333061154e-09  3.4421566628536826e-09  3.6530848721453309e-09  3.8944293158664660e-09  4.1037013420492936e-09  4.2147356214106016e-09  4.1786777976678639e-09  3.9793685019702073e-09  3.6372835566485733e-09  3.2012765032537117e-09  2.7326898080783149e-09  2.2888437049050235e-09  1.9116140087930629e-09  1.6234116545883469e-09  1.4296696843435226e-09  1.3251429839070173e-09  1.3009010651034061e-09  1.3494022908866882e-09  1.4662033605024705e-09  1.6484550607759188e-09  1.8918522596009581e-09  2.1883431624921181e-09  2.5260415765328924e-09  2.8906984260884264e-09  3.2663014175159935e-09  3.6328485524938903e-09  3.9624805319760706e-09  4.2185147920617036e-09  4.3618876264849610e-09  4.3649912601724399e-09  4.2269981170552175e-09  3.9822119697237721e-09  3.6958690370003108e-09  3.4480615892654314e-09  3.3122483566857025e-09  3.3390553714132680e-09  3.5694394717917596e-09  4.1980417504188146e-09  6.6923855531170565e-09  2.1522328970910908e-08  1.2371775719240665e-07  8.6534468912222199e-07  6.4646841089716599e-06  4.5843690718236155e-05  2.6564676845523073e-04  1.2436302980419172e-03  4.8461039725382713e-03  1.6107178149107209e-02  4.4025769368764400e-02  9.7008029533358076e-02  1.5663214983637688e-01  1.7473920983553962e-01  1.3545796033800706e-01  7.5014993515801182e-02  3.2510374732149037e-02  1.1745506618165830e-02  3.6130827537573210e-03  9.7936818218293453e-04  2.3669716738460960e-04  5.2130888670892595e-05  1.0614863115254129e-05  2.0317369195202664e-06  3.7299100525979136e-07  6.8966166817143329e-08  1.5231296003089722e-08  5.6362677755020024e-09  3.5372898840524523e-09  2.7278644370673214e-09  2.2433764862463251e-09  1.9646257553243936e-09  1.8703921780870646e-09  1.9172757644200991e-09  2.0309918721268324e-09  2.1226585125423276e-09  2.1143594581943518e-09  1.9664160599928885e-09  1.6950606797869887e-09  1.3669179946739785e-09  1.0632552313787185e-09  8.3628813094902768e-10  6.8854650845887900e-10  5.8873627359938824e-10  5.1644232510635810e-10  4.7177213727956689e-10  4.5691006283140267e-10  2.5487964471987097e-09  2.5054436206321128e-09  2.3928575754987506e-09  2.2565778339371735e-09  2.1526121142745470e-09  2.1265615551735902e-09  2.1975467983745123e-09  2.3522341476049502e-09  2.5501345419593193e-09  2.7378078209707079e-09  2.8673870636788875e-09  2.9138186900736864e-09  2.8853673717840789e-09  2.8236164096914845e-09  2.7923838493987235e-09  2.8585723735906483e-09  3.0703852956167430e-09  3.4388902039533252e-09  3.9282109922818614e-09  4.4583167524368453e-09  4.9219118440034230e-09  5.2124318044523056e-09  5.2546280059892611e-09  5.0262333096211624e-09  4.5620791316640397e-09  3.9400968618215751e-09  3.2568324142454081e-09  2.6032093900731092e-09  2.0483191009361198e-09  1.6333414560941089e-09  1.3733314792189302e-09  1.2631549988740807e-09  1.2844898900442830e-09  1.4120438062691131e-09  1.6181757080434987e-09  1.8758678705808271e-09  2.1605387326549226e-09  2.4513706650463969e-09  2.7324488253899607e-09  2.9932132554932308e-09  3.2272242103168886e-09  3.4288828204600109e-09  3.5895512836811909e-09  3.6961156833662537e-09  3.7346315995055421e-09  3.6988990693856351e-09  3.6003544854477052e-09  3.4739540173988376e-09  3.3758147899565128e-09  3.3715206890359635e-09  3.5179664021675905e-09  3.8467496422416398e-09  4.3717489805544268e-09  5.2279842119354499e-09  7.6139846936871524e-09  2.0016480849293926e-08  9.9442691078282219e-08  6.1831046318662076e-07  3.7854149617244619e-06  2.0321552314344173e-05  9.2669367437067660e-05  3.6095737114748841e-04  1.2127782515385574e-03  3.4606656128935770e-03  8.2533029041661696e-03  1.5772907978897042e-02  2.3221806806692145e-02  2.5470545825885847e-02  2.0613114501448999e-02  1.2691121940529263e-02  6.1905473719231939e-03  2.5052414170380760e-03  8.6956934505466425e-04  2.6364859256915001e-04  7.1311322709129190e-05  1.7426937263087710e-05  3.9121635332412572e-06  8.2042232231560034e-07  1.6610928845330544e-07  3.6023755250206886e-08  1.1062705514892014e-08  5.9033462750350385e-09  4.2572433636292658e-09  3.2575335777817570e-09  2.4957941668214235e-09  1.9567763860827007e-09  1.6441110411402202e-09  1.5230676204787677e-09  1.5260039428457158e-09  1.5724834516226165e-09  1.5930994021621592e-09  1.5509306833715957e-09  1.4533036483493531e-09  1.3467102415129800e-09  1.2931399899850017e-09  1.3359940547955654e-09  1.4737578082196578e-09  1.6602897042761110e-09  1.8337444191279828e-09  1.9499009995314799e-09  1.9900155739750032e-09  1.8556940355462292e-09  1.8394016245392172e-09  1.8069049892936402e-09  1.7993892937058565e-09  1.8629200624276240e-09  2.0259448408464603e-09  2.2838264099214099e-09  2.5961004240567720e-09  2.8970776633921986e-09  3.1162528231994238e-09  3.2022649843428193e-09  3.1428997022027434e-09  2.9742509965806385e-09  2.7751714359959299e-09  2.6479338132358373e-09  2.6905156942470926e-09  2.9679772064503241e-09  3.4898984352545664e-09  4.1995262640089777e-09  4.9792234862043276e-09  5.6745334492864596e