<?xml version="1.0"?>
<VTKFile type="UnstructuredGrid"  version="0.1"  >
<UnstructuredGrid>
<Piece  NumberOfPoints="20201" NumberOfCells="40000">
<Points>
<DataArray  type="Float64"  NumberOfComponents="3"  format="ascii">0 0 0  2 0 0  4 0 0  6 0 0  8 0 0  10 0 0  12 0 0  14 0 0  16 0 0  18 0 0  20 0 0  22 0 0  24 0 0  26 0 0  28 0 0  30 0 0  32 0 0  34 0 0  36 0 0  38 0 0  40 0 0  42 0 0  44 0 0  46 0 0  48 0 0  50 0 0  52 0 0  54 0 0  56 0 0  58 0 0  60 0 0  62 0 0  64 0 0  66 0 0  68 0 0  70 0 0  72 0 0  74 0 0  76 0 0  78 0 0  80 0 0  82 0 0  84 0 0  86 0 0  88 0 0  90 0 0  92 0 0  94 0 0  96 0 0  98 0 0  100 0 0  102 0 0  104 0 0  106 0 0  108 0 0  110 0 0  112 0 0  114 0 0  116 0 0  118 0 0  120 0 0  122 0 0  124 0 0  126 0 0  128 0 0  130 0 0  132 0 0  134 0 0  136 0 0  138 0 0  140 0 0  142 0 0  144 0 0  146 0 0  148 0 0  150 0 0  152 0 0  154 0 0  156 0 0  158 0 0  160 0 0  162 0 0  164 0 0  166 0 0  168 0 0  170 0 0  172 0 0  174 0 0  176 0 0  178 0 0  180 0 0  182 0 0  184 0 0  186 0 0  188 0 0  190 0 0  192 0 0  194 0 0  196 0 0  198 0 0  200 0 0  0 2 0  2 2 0  4 2 0  6 2 0  8 2 0  10 2 0  12 2 0  14 2 0  16 2 0  18 2 0  20 2 0  22 2 0  24 2 0  26 2 0  28 2 0  30 2 0  32 2 0  34 2 0  36 2 0  38 2 0  40 2 0  42 2 0  44 2 0  46 2 0  48 2 0  50 2 0  52 2 0  54 2 0  56 2 0  58 2 0  60 2 0  62 2 0  64 2 0  66 2 0  68 2 0  70 2 0  72 2 0  74 2 0  76 2 0  78 2 0  80 2 0  82 2 0  84 2 0  86 2 0  88 2 0  90 2 0  92 2 0  94 2 0  96 2 0  98 2 0  100 2 0  102 2 0  104 2 0  106 2 0  108 2 0  110 2 0  112 2 0  114 2 0  116 2 0  118 2 0  120 2 0  122 2 0  124 2 0  126 2 0  128 2 0  130 2 0  132 2 0  134 2 0  136 2 0  138 2 0  140 2 0  142 2 0  144 2 0  146 2 0  148 2 0  150 2 0  152 2 0  154 2 0  156 2 0  158 2 0  160 2 0  162 2 0  164 2 0  166 2 0  168 2 0  170 2 0  172 2 0  174 2 0  176 2 0  178 2 0  180 2 0  182 2 0  184 2 0  186 2 0  188 2 0  190 2 0  192 2 0  194 2 0  196 2 0  198 2 0  200 2 0  0 4 0  2 4 0  4 4 0  6 4 0  8 4 0  10 4 0  12 4 0  14 4 0  16 4 0  18 4 0  20 4 0  22 4 0  24 4 0  26 4 0  28 4 0  30 4 0  32 4 0  34 4 0  36 4 0  38 4 0  40 4 0  42 4 0  44 4 0  46 4 0  48 4 0  50 4 0  52 4 0  54 4 0  56 4 0  58 4 0  60 4 0  62 4 0  64 4 0  66 4 0  68 4 0  70 4 0  72 4 0  74 4 0  76 4 0  78 4 0  80 4 0  82 4 0  84 4 0  86 4 0  88 4 0  90 4 0  92 4 0  94 4 0  96 4 0  98 4 0  100 4 0  102 4 0  104 4 0  106 4 0  108 4 0  110 4 0  112 4 0  114 4 0  116 4 0  118 4 0  120 4 0  122 4 0  124 4 0  126 4 0  128 4 0  130 4 0  132 4 0  134 4 0  136 4 0  138 4 0  140 4 0  142 4 0  144 4 0  146 4 0  148 4 0  150 4 0  152 4 0  154 4 0  156 4 0  158 4 0  160 4 0  162 4 0  164 4 0  166 4 0  168 4 0  170 4 0  172 4 0  174 4 0  176 4 0  178 4 0  180 4 0  182 4 0  184 4 0  186 4 0  188 4 0  190 4 0  192 4 0  194 4 0  196 4 0  198 4 0  200 4 0  0 6 0  2 6 0  4 6 0  6 6 0  8 6 0  10 6 0  12 6 0  14 6 0  16 6 0  18 6 0  20 6 0  22 6 0  24 6 0  26 6 0  28 6 0  30 6 0  32 6 0  34 6 0  36 6 0  38 6 0  40 6 0  42 6 0  44 6 0  46 6 0  48 6 0  50 6 0  52 6 0  54 6 0  56 6 0  58 6 0  60 6 0  62 6 0  64 6 0  66 6 0  68 6 0  70 6 0  72 6 0  74 6 0  76 6 0  78 6 0  80 6 0  82 6 0  84 6 0  86 6 0  88 6 0  90 6 0  92 6 0  94 6 0  96 6 0  98 6 0  100 6 0  102 6 0  104 6 0  106 6 0  108 6 0  110 6 0  112 6 0  114 6 0  116 6 0  118 6 0  120 6 0  122 6 0  124 6 0  126 6 0  128 6 0  130 6 0  132 6 0  134 6 0  136 6 0  138 6 0  140 6 0  142 6 0  144 6 0  146 6 0  148 6 0  150 6 0  152 6 0  154 6 0  156 6 0  158 6 0  160 6 0  162 6 0  164 6 0  166 6 0  168 6 0  170 6 0  172 6 0  174 6 0  176 6 0  178 6 0  180 6 0  182 6 0  184 6 0  186 6 0  188 6 0  190 6 0  192 6 0  194 6 0  196 6 0  198 6 0  200 6 0  0 8 0  2 8 0  4 8 0  6 8 0  8 8 0  10 8 0  12 8 0  14 8 0  16 8 0  18 8 0  20 8 0  22 8 0  24 8 0  26 8 0  28 8 0  30 8 0  32 8 0  34 8 0  36 8 0  38 8 0  40 8 0  42 8 0  44 8 0  46 8 0  48 8 0  50 8 0  52 8 0  54 8 0  56 8 0  58 8 0  60 8 0  62 8 0  64 8 0  66 8 0  68 8 0  70 8 0  72 8 0  74 8 0  76 8 0  78 8 0  80 8 0  82 8 0  84 8 0  86 8 0  88 8 0  90 8 0  92 8 0  94 8 0  96 8 0  98 8 0  100 8 0  102 8 0  104 8 0  106 8 0  108 8 0  110 8 0  112 8 0  114 8 0  116 8 0  118 8 0  120 8 0  122 8 0  124 8 0  126 8 0  128 8 0  130 8 0  132 8 0  134 8 0  136 8 0  138 8 0  140 8 0  142 8 0  144 8 0  146 8 0  148 8 0  150 8 0  152 8 0  154 8 0  156 8 0  158 8 0  160 8 0  162 8 0  164 8 0  166 8 0  168 8 0  170 8 0  172 8 0  174 8 0  176 8 0  178 8 0  180 8 0  182 8 0  184 8 0  186 8 0  188 8 0  190 8 0  192 8 0  194 8 0  196 8 0  198 8 0  200 8 0  0 10 0  2 10 0  4 10 0  6 10 0  8 10 0  10 10 0  12 10 0  14 10 0  16 10 0  18 10 0  20 10 0  22 10 0  24 10 0  26 10 0  28 10 0  30 10 0  32 10 0  34 10 0  36 10 0  38 10 0  40 10 0  42 10 0  44 10 0  46 10 0  48 10 0  50 10 0  52 10 0  54 10 0  56 10 0  58 10 0  60 10 0  62 10 0  64 10 0  66 10 0  68 10 0  70 10 0  72 10 0  74 10 0  76 10 0  78 10 0  80 10 0  82 10 0  84 10 0  86 10 0  88 10 0  90 10 0  92 10 0  94 10 0  96 10 0  98 10 0  100 10 0  102 10 0  104 10 0  106 10 0  108 10 0  110 10 0  112 10 0  114 10 0  116 10 0  118 10 0  120 10 0  122 10 0  124 10 0  126 10 0  128 10 0  130 10 0  132 10 0  134 10 0  136 10 0  138 10 0  140 10 0  142 10 0  144 10 0  146 10 0  148 10 0  150 10 0  152 10 0  154 10 0  156 10 0  158 10 0  160 10 0  162 10 0  164 10 0  166 10 0  168 10 0  170 10 0  172 10 0  174 10 0  176 10 0  178 10 0  180 10 0  182 10 0  184 10 0  186 10 0  188 10 0  190 10 0  192 10 0  194 10 0  196 10 0  198 10 0  200 10 0  0 12 0  2 12 0  4 12 0  6 12 0  8 12 0  10 12 0  12 12 0  14 12 0  16 12 0  18 12 0  20 12 0  22 12 0  24 12 0  26 12 0  28 12 0  30 12 0  32 12 0  34 12 0  36 12 0  38 12 0  40 12 0  42 12 0  44 12 0  46 12 0  48 12 0  50 12 0  52 12 0  54 12 0  56 12 0  58 12 0  60 12 0  62 12 0  64 12 0  66 12 0  68 12 0  70 12 0  72 12 0  74 12 0  76 12 0  78 12 0  80 12 0  82 12 0  84 12 0  86 12 0  88 12 0  90 12 0  92 12 0  94 12 0  96 12 0  98 12 0  100 12 0  102 12 0  104 12 0  106 12 0  108 12 0  110 12 0  112 12 0  114 12 0  116 12 0  118 12 0  120 12 0  122 12 0  124 12 0  126 12 0  128 12 0  130 12 0  132 12 0  134 12 0  136 12 0  138 12 0  140 12 0  142 12 0  144 12 0  146 12 0  148 12 0  150 12 0  152 12 0  154 12 0  156 12 0  158 12 0  160 12 0  162 12 0  164 12 0  166 12 0  168 12 0  170 12 0  172 12 0  174 12 0  176 12 0  178 12 0  180 12 0  182 12 0  184 12 0  186 12 0  188 12 0  190 12 0  192 12 0  194 12 0  196 12 0  198 12 0  200 12 0  0 14 0  2 14 0  4 14 0  6 14 0  8 14 0  10 14 0  12 14 0  14 14 0  16 14 0  18 14 0  20 14 0  22 14 0  24 14 0  26 14 0  28 14 0  30 14 0  32 14 0  34 14 0  36 14 0  38 14 0  40 14 0  42 14 0  44 14 0  46 14 0  48 14 0  50 14 0  52 14 0  54 14 0  56 14 0  58 14 0  60 14 0  62 14 0  64 14 0  66 14 0  68 14 0  70 14 0  72 14 0  74 14 0  76 14 0  78 14 0  80 14 0  82 14 0  84 14 0  86 14 0  88 14 0  90 14 0  92 14 0  94 14 0  96 14 0  98 14 0  100 14 0  102 14 0  104 14 0  106 14 0  108 14 0  110 14 0  112 14 0  114 14 0  116 14 0  118 14 0  120 14 0  122 14 0  124 14 0  126 14 0  128 14 0  130 14 0  132 14 0  134 14 0  136 14 0  138 14 0  140 14 0  142 14 0  144 14 0  146 14 0  148 14 0  150 14 0  152 14 0  154 14 0  156 14 0  158 14 0  160 14 0  162 14 0  164 14 0  166 14 0  168 14 0  170 14 0  172 14 0  174 14 0  176 14 0  178 14 0  180 14 0  182 14 0  184 14 0  186 14 0  188 14 0  190 14 0  192 14 0  194 14 0  196 14 0  198 14 0  200 14 0  0 16 0  2 16 0  4 16 0  6 16 0  8 16 0  10 16 0  12 16 0  14 16 0  16 16 0  18 16 0  20 16 0  22 16 0  24 16 0  26 16 0  28 16 0  30 16 0  32 16 0  34 16 0  36 16 0  38 16 0  40 16 0  42 16 0  44 16 0  46 16 0  48 16 0  50 16 0  52 16 0  54 16 0  56 16 0  58 16 0  60 16 0  62 16 0  64 16 0  66 16 0  68 16 0  70 16 0  72 16 0  74 16 0  76 16 0  78 16 0  80 16 0  82 16 0  84 16 0  86 16 0  88 16 0  90 16 0  92 16 0  94 16 0  96 16 0  98 16 0  100 16 0  102 16 0  104 16 0  106 16 0  108 16 0  110 16 0  112 16 0  114 16 0  116 16 0  118 16 0  120 16 0  122 16 0  124 16 0  126 16 0  128 16 0  130 16 0  132 16 0  134 16 0  136 16 0  138 16 0  140 16 0  142 16 0  144 16 0  146 16 0  148 16 0  150 16 0  152 16 0  154 16 0  156 16 0  158 16 0  160 16 0  162 16 0  164 16 0  166 16 0  168 16 0  170 16 0  172 16 0  174 16 0  176 16 0  178 16 0  180 16 0  182 16 0  184 16 0  186 16 0  188 16 0  190 16 0  192 16 0  194 16 0  196 16 0  198 16 0  200 16 0  0 18 0  2 18 0  4 18 0  6 18 0  8 18 0  10 18 0  12 18 0  14 18 0  16 18 0  18 18 0  20 18 0  22 18 0  24 18 0  26 18 0  28 18 0  30 18 0  32 18 0  34 18 0  36 18 0  38 18 0  40 18 0  42 18 0  44 18 0  46 18 0  48 18 0  50 18 0  52 18 0  54 18 0  56 18 0  58 18 0  60 18 0  62 18 0  64 18 0  66 18 0  68 18 0  70 18 0  72 18 0  74 18 0  76 18 0  78 18 0  80 18 0  82 18 0  84 18 0  86 18 0  88 18 0  90 18 0  92 18 0  94 18 0  96 18 0  98 18 0  100 18 0  102 18 0  104 18 0  106 18 0  108 18 0  110 18 0  112 18 0  114 18 0  116 18 0  118 18 0  120 18 0  122 18 0  124 18 0  126 18 0  128 18 0  130 18 0  132 18 0  134 18 0  136 18 0  138 18 0  140 18 0  142 18 0  144 18 0  146 18 0  148 18 0  150 18 0  152 18 0  154 18 0  156 18 0  158 18 0  160 18 0  162 18 0  164 18 0  166 18 0  168 18 0  170 18 0  172 18 0  174 18 0  176 18 0  178 18 0  180 18 0  182 18 0  184 18 0  186 18 0  188 18 0  190 18 0  192 18 0  194 18 0  196 18 0  198 18 0  200 18 0  0 20 0  2 20 0  4 20 0  6 20 0  8 20 0  10 20 0  12 20 0  14 20 0  16 20 0  18 20 0  20 20 0  22 20 0  24 20 0  26 20 0  28 20 0  30 20 0  32 20 0  34 20 0  36 20 0  38 20 0  40 20 0  42 20 0  44 20 0  46 20 0  48 20 0  50 20 0  52 20 0  54 20 0  56 20 0  58 20 0  60 20 0  62 20 0  64 20 0  66 20 0  68 20 0  70 20 0  72 20 0  74 20 0  76 20 0  78 20 0  80 20 0  82 20 0  84 20 0  86 20 0  88 20 0  90 20 0  92 20 0  94 20 0  96 20 0  98 20 0  100 20 0  102 20 0  104 20 0  106 20 0  108 20 0  110 20 0  112 20 0  114 20 0  116 20 0  118 20 0  120 20 0  122 20 0  124 20 0  126 20 0  128 20 0  130 20 0  132 20 0  134 20 0  136 20 0  138 20 0  140 20 0  142 20 0  144 20 0  146 20 0  148 20 0  150 20 0  152 20 0  154 20 0  156 20 0
[...]
<PointData  Scalars="f_271-4"> 
<DataArray  type="Float64"  Name="f_271-4"  format="ascii">3.8372917947260377e-05  3.6244474568940041e-05  3.0573537055460400e-05  2.3138250483810307e-05  1.5976547096326657e-05  1.0694470956574203e-05  8.1757953503346974e-06  8.6001412750290396e-06  1.1545976160919968e-05  1.6080326778045197e-05  2.0908593740527027e-05  2.4681482016821059e-05  2.6407614520932140e-05  2.5761512418369041e-05  2.3096838442558312e-05  1.9179303203898441e-05  1.4838748881658553e-05  1.0732468851086022e-05  7.2675032969404213e-06  4.6205123644916099e-06  2.7897883390924067e-06  1.6567441277176205e-06  1.0556443341007658e-06  8.4188211539333919e-07  9.3770070659394126e-07  1.3379782828964431e-06  2.0744490097595796e-06  3.1533483453477404e-06  4.4924788880174754e-06  5.8882761721833051e-06  7.0396242388231622e-06  7.6365076281601432e-06  7.4863208622830338e-06  6.6161566980513875e-06  5.2878186879912116e-06  3.9074375779099043e-06  2.8747453868127492e-06  2.4539170187176046e-06  2.7392466985323108e-06  3.7335496698404909e-06  5.4624969063816250e-06  7.9822540130823754e-06  1.1215603065163884e-05  1.4750233605593189e-05  1.7828146651089133e-05  1.9609073647634505e-05  1.9555567086607424e-05  1.7687708300340097e-05  1.4550766067478529e-05  1.0938687255312937e-05  7.5654378749580633e-06  4.8660300394710061e-06  2.9792970032823566e-06  1.8478785084771628e-06  1.3399330634014534e-06  1.3180539142818477e-06  1.5804647366383508e-06  1.5673525338373381e-06  8.4117487858328311e-07  -4.1696998246445559e-06  7.2308473955992684e-05  -1.2713468866285067e-03  4.3229180272485533e-02  4.7368734575556298e-01  8.8566706379874227e-01  9.7450789726365650e-01  9.8962582172791713e-01  9.8664491029566859e-01  9.6042692997593138e-01  8.3392864826614044e-01  3.9267385248584447e-01  7.1336517827267201e-02  9.1166705769728431e-03  1.1532380825553694e-03  1.5421553021784917e-04  2.4347412046443375e-05  5.5976014478619368e-06  2.0662014304968701e-06  1.0896852004800108e-06  7.7398900725082896e-07  7.6635744756507272e-07  1.0501768592142844e-06  1.7686891996697273e-06  3.1707016591240858e-06  5.5507274457392840e-06  9.1500108771681174e-06  1.3994122785917047e-05  1.9668498229731406e-05  2.5103801565356103e-05  2.8524790773961960e-05  2.7684401975245324e-05  2.0354570418097351e-05  7.4790430601004147e-06  5.7435362250729593e-07  -1.0400253394939006e-09  2.1463436116798292e-10  5.6618865228984207e-12  2.5199895430227273e-12  1.0672935621789574e-12  3.8719006247208096e-13  2.1391762532602430e-13  3.6715799914330686e-05  3.4708217467163249e-05  2.9349277105482806e-05  2.2297274035798780e-05  1.5466750886128152e-05  1.0383885191762523e-05  7.9049060602323884e-06  8.2216760558110625e-06  1.0952705420768036e-05  1.5226802877027724e-05  1.9824041918421654e-05  2.3463620289187709e-05  2.5192553142120288e-05  2.4680116665493971e-05  2.2238426273232993e-05  1.8578086613725507e-05  1.4482256384311982e-05  1.0579856556661720e-05  7.2666195391817740e-06  4.7197055427327757e-06  2.9451650325155470e-06  1.8359503321967623e-06  1.2382189364478771e-06  1.0162671165270371e-06  1.0960487715322085e-06  1.4708219043290431e-06  2.1674069384520790e-06  3.1874215494936998e-06  4.4484178270135958e-06  5.7540528602191268e-06  6.8183009339954733e-06  7.3505160737203375e-06  7.1748049920329375e-06  6.3253039551598642e-06  5.0582905900778570e-06  3.7647584795737380e-06  2.8262880907058992e-06  2.4919567641534797e-06  2.8464919396659613e-06  3.8869856217845368e-06  5.6335932477060514e-06  8.1359745534545213e-06  1.1313618469542715e-05  1.4760955304707023e-05  1.7739415596898981e-05  1.9435506901030796e-05  1.9335077371905819e-05  1.7468089588088497e-05  1.4373210562972045e-05  1.0826672413616918e-05  7.5232551648108570e-06  4.8849270141290916e-06  3.0459177400503556e-06  1.9507779199021787e-06  1.4732698091806131e-06  1.4861567515987151e-06  1.8187408335262102e-06  2.0007040547126129e-06  1.3213191717026006e-06  -2.0853251601245947e-06  4.5029410859363023e-05  -7.5542997391586143e-04  4.3278504955158247e-02  4.1483351898603277e-01  8.5152328688993184e-01  9.6226970457547301e-01  9.8201582586649205e-01  9.7762559260788939e-01  9.4230286991649448e-01  7.7941243334115518e-01  3.2201818240023838e-01  5.7432269088674229e-02  7.7880952198978335e-03  1.0206045368922054e-03  1.4013412439837239e-04  2.2866001676332837e-05  5.5667718852679769e-06  2.2213351298805387e-06  1.2652666507529711e-06  9.4029508562698573e-07  9.1308821438304758e-07  1.1657978249638268e-06  1.8311647675785219e-06  3.1403555604481314e-06  5.3655200588582767e-06  8.7265969949206964e-06  1.3241255242333118e-05  1.8520803348947470e-05  2.3578704963874423e-05  2.6792730747092137e-05  2.6143619728758366e-05  1.9738727662523498e-05  8.1576907771244289e-06  8.4479660041654952e-07  7.0835193446470005e-09  5.1742771107756578e-10  -3.6369360111874471e-12  2.6150239596030509e-12  4.6499103069950424e-13  2.6060428465822305e-13  1.6939244389176024e-13  3.2157025949103906e-05  3.0473862732343879e-05  2.5956233323110399e-05  1.9947506225057967e-05  1.4032748053231277e-05  9.5183366932314746e-06  7.1780470888337450e-06  7.2294345318500075e-06  9.3941741910206675e-06  1.2965102531808805e-05  1.6923538299824932e-05  2.0176819782386141e-05  2.1882860794940147e-05  2.1706226580547986e-05  1.9854858020268818e-05  1.6893952704727553e-05  1.3478788034958257e-05  1.0156496936976521e-05  7.2862230163245969e-06  5.0411252413155243e-06  3.4441051375910783e-06  2.4165161801418309e-06  1.8352363334279816e-06  1.5885629700878268e-06  1.6136399293700645e-06  1.9014578948260723e-06  2.4683166307075107e-06  3.3064972331848726e-06  4.3361114272030549e-06  5.3832096428824851e-06  6.2044478415750833e-06  6.5619285796253621e-06  6.3237565654060517e-06  5.5408281388317556e-06  4.4517995364969927e-06  3.4042641411254532e-06  2.7289391967308337e-06  2.6333190964133272e-06  3.1762781260977620e-06  4.3390027871395744e-06  6.1245304424951666e-06  8.5615404639896852e-06  1.1559277972169697e-05  1.4734490474850445e-05  1.7410572718792053e-05  1.8856917770985816e-05  1.8628496889457472e-05  1.6781113219505380e-05  1.3829227056517601e-05  1.0493324481448398e-05  7.4104278653223248e-06  4.9645313410339293e-06  3.2771423309746545e-06  2.2986306972746608e-06  1.9180257747316020e-06  2.0332026173701914e-06  2.5451402747792646e-06  3.2523223300927760e-06  3.7536839839029102e-06  7.0287691865693571e-06  3.6927311925450076e-06  1.2439701747024277e-03  3.6067950248206783e-02  2.4987644912247484e-01  6.8846125502929689e-01  8.9614874651638798e-01  9.3945832462376522e-01  9.2858383021703927e-01  8.4592845857561705e-01  5.5844341516536111e-01  1.7060960222875338e-01  3.1530440632030712e-02  4.9044897689642939e-03  7.0996574572117037e-04  1.0564669301829668e-04  1.9196018866454962e-05  5.5940453611386634e-06  2.7532301907366686e-06  1.8621671627079517e-06  1.5119498959472917e-06  1.4212927772566188e-06  1.5714621120658607e-06  2.0709226306011508e-06  3.1085096005075901e-06  4.9021743976158375e-06  7.6208058778613571e-06  1.1265608949867122e-05  1.5516548720204242e-05  1.9596477832231793e-05  2.2260867449580232e-05  2.2022426642669998e-05  1.7659575154673858e-05  9.3657129881860500e-06  1.9647480893066847e-06  1.0208768010592523e-07  3.3080485167062826e-09  2.4025261494752370e-10  5.9225052979845440e-11  2.8319768398692629e-11  1.4278727089947177e-11  1.0402141378226620e-11  2.5773037771443463e-05  2.4523349428221925e-05  2.1139892839402216e-05  1.6563437510428287e-05  1.1944469470844777e-05  8.2823524763630854e-06  6.2179561032884428e-06  5.9827878232224987e-06  7.4232136855182477e-06  1.0045176308367328e-05  1.3100319413220189e-05  1.5758489269323150e-05  1.7346950772319889e-05  1.7550123740969914e-05  1.6458483474466385e-05  1.4452196367754820e-05  1.2010846689455899e-05  9.5579381275009416e-06  7.3861115682367702e-06  5.6466076512259107e-06  4.3712517176046943e-06  3.5096033871324119e-06  2.9743575778522672e-06  2.6854988533715302e-06  2.5992101502807040e-06  2.7109331305749637e-06  3.0324504555158525e-06  3.5539822320898487e-06  4.2092833615979999e-06  4.8630723098164757e-06  5.3347114676035255e-06  5.4580496325934149e-06  5.1565955307299251e-06  4.4967296957278557e-06  3.6849884185800770e-06  3.0025862248163482e-06  2.7057330183302021e-06  2.9428660833132579e-06  3.7374403339323788e-06  5.0482277379404043e-06  6.8508238229771041e-06  9.1393970706544243e-06  1.1808732243668980e-05  1.4518012040878613e-05  1.6698706598182670e-05  1.7758134464040087e-05  1.7359228223472185e-05  1.5589723526447271e-05  1.2914892339393870e-05  9.9598698259473643e-06  7.2685716690850876e-06  5.1664523875786749e-06  3.7563988757377437e-06  2.9970828645489000e-06  2.7967604459210213e-06  3.0794304977625097e-06  3.8136159829041665e-06  5.0868415327700949e-06  8.0234227416586151e-06  2.2587879508280853e-05  1.8009355055953699e-04  2.3917784798533912e-03  1.9058300495681621e-02  9.4560819053904718e-02  3.2424531500695969e-01  6.1480771101066134e-01  7.3413020841417176e-01  7.0051324115742486e-01  5.0715799252224047e-01  2.1997130524729797e-01  5.9875987340827795e-02  1.2914822111865416e-02  2.3517596506114607e-03  3.9343333666365762e-04  6.7343262684448448e-05  1.5095236301962351e-05  5.9736423188715641e-06  3.8375614442344721e-06  3.0687266553972315e-06  2.6846281355972114e-06  2.4733059826897114e-06  2.4231381410410264e-06  2.6235198608618158e-06  3.2230042408722208e-06  4.3843816024215114e-06  6.2245817426079330e-06  8.7338135536774075e-06  1.1680217304360214e-05  1.4534337693773344e-05  1.6480629475285913e-05  1.6589278161830683e-05  1.4183135321598021e-05  9.3899071383251124e-06  3.8840649948017926e-06  7.4096591743797809e-07  7.1639427476032871e-08  5.5148584394244699e-09  -4.2556431296621518e-10  -6.4631948407261326e-10  -4.1643930284559028e-10  -3.2757785883383550e-10  1.8905325988407468e-05  1.8091822215742262e-05  1.5864705540320153e-05  1.2788046640757092e-05  9.5865277708532529e-06  6.9332769961522323e-06  5.3007786884810401e-06  4.8999349843592683e-06  5.6774745700649904e-06  7.3403372780185421e-06  9.4118913937298900e-06  1.1342283560144577e-05  1.2662509958899321e-05  1.3120303272371056e-05  1.2727054542286822e-05  1.1698140674523866e-05  1.0335164165681979e-05  8.9179486212323029e-06  7.6431854683618882e-06  6.6082923402185689e-06  5.8242929796403293e-06  5.2451952292710765e-06  4.8052818981533576e-06  4.4538074878052287e-06  4.1750674043056654e-06  3.9865597387063394e-06  3.9174881984696950e-06  3.9784483103166819e-06  4.1369009115869978e-06  4.3115951850409186e-06  4.3931094508900568e-06  4.2872273997636597e-06  3.9649322000164823e-06  3.4941713397121699e-06  3.0326426377111913e-06  2.7788952720699696e-06  2.9017158688620530e-06  3.4830690879962314e-06  4.5088200898568622e-06  5.9149343873549994e-06  7.6473248401165635e-06  9.6634064307436377e-06  1.1849781714741032e-05  1.3930735397425592e-05  1.5482472207159678e-05  1.6086657461636878e-05  1.5533384029672458e-05  1.3936555293710418e-05  1.1687635538325598e-05  9.2869864926776737e-06  7.1630455552116177e-06  5.5711098895535653e-06  4.5910498736702518e-06  4.1864238261490245e-06  4.2769952296451463e-06  4.7959886798290797e-06  5.7371553952855441e-06  7.3258826320193133e-06  1.1379021450747163e-05  3.3408589899632494e-05  2.0784884575112580e-04  1.3432621666056336e-03  6.7199782406183201e-03  2.6391154963450125e-02  7.9569046106617441e-02  1.7453659294258225e-01  2.4503709233257326e-01  2.2132889550905188e-01  1.3013207328922566e-01  5.2343966853798267e-02  1.6379135719989169e-02  4.1363274957241696e-03  9.0084611085665997e-04  1.7919781925172652e-04  3.8186271147209018e-05  1.2156447809698260e-05  7.0235893596237136e-06  5.6930102919219459e-06  5.1276500923952237e-06  4.7122826698600225e-06  4.3043239554898199e-06  3.9177443291424387e-06  3.6525961986415491e-06  3.6509978565354529e-06  4.0521589258899325e-06  4.9458418792658016e-06  6.3241338078850068e-06  8.0348352400068657e-06  9.7528794461123992e-06  1.1002407781538290e-05  1.1265267099314530e-05  1.0186680450429694e-05  7.8273704261105834e-06  4.8132868800100814e-06  2.1846402140705792e-06  7.3175471974020789e-07  2.2992005952045851e-07  8.7855516621358774e-08  3.9783567918970514e-08  2.0911103249808956e-08  1.5801950547489680e-08  1.2728919396336030e-05  1.2274813238465809e-05  1.1018007394225196e-05  9.2470510928362248e-06  7.3543377852196418e-06  5.7294827290035943e-06  4.6663947080203955e-06  4.3124627455566451e-06  4.6578509876786836e-06  5.5500567067222462e-06  6.7300487244736270e-06  7.8959704447195683e-06  8.7879033716912651e-06  9.2629962147367434e-06  9.3240214915273002e-06  9.0889498705451159e-06  8.7235401277958806e-06  8.3732732538986031e-06  8.1196631935410145e-06  7.9673006965481327e-06  7.8574807865605182e-06  7.7010057081835999e-06  7.4192925868397860e-06  6.9785899306930712e-06  6.4030788622335324e-06  5.7621505891349780e-06  5.1398813059738354e-06  4.6020188582377492e-06  4.1744189346886171e-06  3.8403585851665001e-06  3.5570109409729383e-06  3.2849403302264027e-06  3.0188381896382806e-06  2.8050380297209403e-06  2.7350576310657086e-06  2.9148451529090069e-06  3.4221552212012568e-06  4.2735823919112196e-06  5.4221533066538461e-06  6.7891995707832209e-06  8.3032764274353816e-06  9.9021484838315748e-06  1.1484415661590922e-05  1.2858080671542747e-05  1.3755656735091676e-05  1.3934073138905718e-05  1.3301185196565222e-05  1.1982429647580524e-05  1.0282973447738223e-05  8.5729107386688014e-06  7.1659647720779111e-06  6.2489026455111697e-06  5.8743972659399954e-06  5.9963949293425939e-06  6.5207063819530758e-06  7.3542007294756601e-06  8.4584727040877184e-06  1.0013983151001662e-05  1.3483782800502250e-05  2.8752392738719487e-05  1.0955474068525098e-04  4.7658526582242469e-04  1.8357696042879497e-03  5.8161530956488128e-03  1.4598641687723877e-02  2.7400447205629633e-02  3.6688558588547186e-02  3.3456325678167267e-02  2.1266907010184518e-02  1.0017059890161550e-02  3.6655736895605147e-03  1.1076550244571136e-03  2.8837090654745601e-04  7.1619937112872334e-05  2.1597593751686696e-05  1.1064262148430487e-05  8.9363785427566469e-06  8.4834548781862704e-06  8.2350242827287987e-06  7.8054081096039001e-06  7.1080446322231191e-06  6.2114691023051924e-06  5.2793319283863565e-06  4.5076551222865586e-06  4.0651823853626271e-06  4.0501552894914262e-06  4.4654942541370266e-06  5.2080258263024503e-06  6.0724639088657818e-06  6.7804314100794091e-06  7.0470080123884810e-06  6.6835047432658426e-06  5.7036568391940874e-06  4.3623246411093516e-06  3.0516734117200743e-06  2.0818397141859381e-06  1.5148802310890628e-06  1.2050239075881044e-06  1.0066342400908690e-06  8.7870299417901650e-07  8.3331595333053056e-07  7.9808943843117319e-06  7.7717690931126692e-06  7.1947706529217522e-06  6.3893898093811970e-06  5.5476355179810209e-06  4.8584892235948150e-06  4.4551196767943506e-06  4.3863284796750034e-06  4.6169576651946025e-06  5.0488436181702920e-06  5.5535349285953862e-06  6.0116985837544684e-06  6.3518402873859235e-06  6.5748662317594399e-06  6.7516772068102105e-06  6.9924127766906520e-06  7.3995175610834519e-06  8.0220683709902070e-06  8.8255897932536842e-06  9.6867896011092554e-06  1.0418742299858165e-05  1.0824412690824704e-05  1.0762506061841153e-05  1.0197547783431720e-05  9.2094650830535911e-06  7.9594970471350888e-06  6.6333591531021778e-06  5.3903163258874403e-06  4.3358465726062452e-06  3.5192749579646490e-06  2.9482070769597208e-06  2.6099628156280676e-06  2.4916410952425662e-06  2.5920453431794314e-06  2.9212666716782093e-06  3.4884266520671249e-06  4.2839799721069012e-06  5.2674503938813936e-06  6.3708265330078940e-06  7.5182913303917411e-06  8.6470701981564075e-06  9.7072523159969215e-06  1.0635858259341420e-05  1.1331291712238575e-05  1.1664035615047919e-05  1.1531632966498089e-05  1.0925998391681048e-05  9.9670212116580112e-06  8.8791999378338901e-06  7.9252034941240574e-06  7.3309877591130577e-06  7.2313637023410127e-06  7.6474430639509621e-06  8.4952666464530654e-06  9.6204116632107197e-06  1.0850827211502819e-05  1.2063195516496869e-05  1.3306595402775353e-05  1.5309617439229399e-05  2.1782978698006558e-05  4.7640685455491207e-05  1.4130231558179035e-04  4.2345726924708878e-04  1.0999279403045455e-03  2.3080036030566227e-03  3.7662305050728344e-03  4.6604028174774079e-03  4.3474195134175046e-03  3.0677084904794341e-03  1.6665180560041801e-03  7.2093497773949007e-04  2.5906138049373070e-04  8.3611514691149451e-05  2.8747821889160202e-05  1.4437662706074068e-05  1.1628062724581467e-05  1.1681866682777439e-05  1.2200353066473767e-05  1.2408687991676943e-05  1.1998331618398002e-05  1.0917093939454706e-05  9.3231583108080971e-06  7.5112322800518761e-06  5.8052145454183568e-06  4.4622697693890248e-06  3.6210744181514826e-06  3.2944652739081558e-06  3.3878815012924169e-06  3.7290551385090754e-06  4.1075829622603628e-06  4.3280357598803219e-06  4.2715835101289095e-06  3.9455025586033042e-06  3.4896128083944983e-06  3.1178450146894535e-06  3.0094009537084210e-06  3.2093406652884121e-06  3.6086721736152293e-06  4.0218239717834326e-06  4.3030647467828890e-06  4.3985039666856712e-06  4.9100599087009143e-06  4.8300317181015876e-06  4.6310172521200836e-06  4.4175224417111977e-06  4.3105349636155816e-06  4.3945227754632162e-06  4.6814387529122322e-06  5.1047823335752777e-06  5.5433650905619737e-06  5.8646738245017424e-06  5.9737807346233799e-06  5.8533339732255766e-06  5.5813520727749007e-06  5.3185162247037569e-06  5.2673617762868087e-06  5.6167537435604721e-06  6.4873560011093340e-06  7.8876678915958457e-06  9.6863764744345670e-06  1.1611982814033600e-05  1.3296215850649274e-05  1.4367049278571258e-05  1.4566230452342648e-05  1.3837162221646181e-05  1.2334768687265633e-05  1.0354892879632916e-05  8.2290414199159102e-06  6.2394687413060899e-06  4.5804014729876578e-06  3.3577001129186412e-06  2.6063346618698302e-06  2.3104957556689804e-06  2.4206657991191374e-06  2.8669022508866554e-06  3.5683636114583234e-06  4.4393329136111811e-06  5.3932433744806500e-06  6.3474935342677533e-06  7.2312787599578895e-06  7.9950084605960972e-06  8.6147755058886770e-06  9.0847677118627565e-06  9.3992156553372710e-06  9.5376810888463885e-06  9.4694735152914305e-06  9.1795746230145555e-06  8.7013286090685622e-06  8.1359288447249123e-06  7.6476171540653363e-06  7.4348596802517899e-06  7.6823496702284296e-06  8.5016121153431407e-06  9.8775657119387284e-06  1.1647687252385161e-05  1.3533765005885366e-05  1.5222498543814824e-05  1.6468713582227648e-05  1.7202659476792103e-05  1.7704577955655745e-05  1.9125205171471142e-05  2.4979352826990761e-05  4.4183096918585042e-05  9.3971521550600463e-05  1.9478873913225580e-04  3.4822300893804300e-04  5.1008425617933356e-04  6.0121337658150780e-04  5.6697790358682188e-04  4.2845760841429635e-04  2.6164668401292994e-04  1.3204147882759761e-04  5.8206535530838795e-05  2.5631510848547704e-05  1.4540843366686505e-05  1.2310048559501139e-05  1.3208602398775933e-05  1.4963441914688107e-05  1.6550171245885540e-05  1.7351362666517857e-05  1.7009352760332859e-05  1.5480127528407926e-05  1.3041891647394098e-05  1.0184313693322826e-05  7.4273183507944812e-06  5.1654157740585227e-06  3.5978572235558080e-06  2.7387101356136052e-06  2.4652491994599147e-06  2.5724736638744567e-06  2.8276103458116956e-06  3.0294849420259537e-06  3.0674504226563017e-06  2.9596385974670664e-06  2.8484526881010703e-06  2.9459112128497731e-06  3.4429664212744992e-06  4.4129537550480107e-06  5.7449885695994092e-06  7.1424618751394662e-06  8.2101299419535927e-06  8.6101484736308548e-06  3.3771709588319892e-06  3.3313708819590739e-06  3.2575274975925786e-06  3.3072986730376424e-06  3.6314534864523926e-06  4.2961815925019972e-06  5.2417383369564445e-06  6.2908852754246704e-06  7.1983222160707470e-06  7.7260684763132582e-06  7.7251767698032795e-06  7.1996022444741408e-06  6.3274383604884000e-06  5.4255744192836203e-06  4.8676027807692136e-06  4.9861102559632501e-06  5.9894052860141756e-06  7.9025665700310726e-06  1.0530710928084905e-05  1.3455666752214925e-05  1.6097331677624512e-05  1.7