<?xml version="1.0"?>
<VTKFile type="UnstructuredGrid"  version="0.1"  >
<UnstructuredGrid>
<Piece  NumberOfPoints="20201" NumberOfCells="40000">
<Points>
<DataArray  type="Float64"  NumberOfComponents="3"  format="ascii">0 0 0  2 0 0  4 0 0  6 0 0  8 0 0  10 0 0  12 0 0  14 0 0  16 0 0  18 0 0  20 0 0  22 0 0  24 0 0  26 0 0  28 0 0  30 0 0  32 0 0  34 0 0  36 0 0  38 0 0  40 0 0  42 0 0  44 0 0  46 0 0  48 0 0  50 0 0  52 0 0  54 0 0  56 0 0  58 0 0  60 0 0  62 0 0  64 0 0  66 0 0  68 0 0  70 0 0  72 0 0  74 0 0  76 0 0  78 0 0  80 0 0  82 0 0  84 0 0  86 0 0  88 0 0  90 0 0  92 0 0  94 0 0  96 0 0  98 0 0  100 0 0  102 0 0  104 0 0  106 0 0  108 0 0  110 0 0  112 0 0  114 0 0  116 0 0  118 0 0  120 0 0  122 0 0  124 0 0  126 0 0  128 0 0  130 0 0  132 0 0  134 0 0  136 0 0  138 0 0  140 0 0  142 0 0  144 0 0  146 0 0  148 0 0  150 0 0  152 0 0  154 0 0  156 0 0  158 0 0  160 0 0  162 0 0  164 0 0  166 0 0  168 0 0  170 0 0  172 0 0  174 0 0  176 0 0  178 0 0  180 0 0  182 0 0  184 0 0  186 0 0  188 0 0  190 0 0  192 0 0  194 0 0  196 0 0  198 0 0  200 0 0  0 2 0  2 2 0  4 2 0  6 2 0  8 2 0  10 2 0  12 2 0  14 2 0  16 2 0  18 2 0  20 2 0  22 2 0  24 2 0  26 2 0  28 2 0  30 2 0  32 2 0  34 2 0  36 2 0  38 2 0  40 2 0  42 2 0  44 2 0  46 2 0  48 2 0  50 2 0  52 2 0  54 2 0  56 2 0  58 2 0  60 2 0  62 2 0  64 2 0  66 2 0  68 2 0  70 2 0  72 2 0  74 2 0  76 2 0  78 2 0  80 2 0  82 2 0  84 2 0  86 2 0  88 2 0  90 2 0  92 2 0  94 2 0  96 2 0  98 2 0  100 2 0  102 2 0  104 2 0  106 2 0  108 2 0  110 2 0  112 2 0  114 2 0  116 2 0  118 2 0  120 2 0  122 2 0  124 2 0  126 2 0  128 2 0  130 2 0  132 2 0  134 2 0  136 2 0  138 2 0  140 2 0  142 2 0  144 2 0  146 2 0  148 2 0  150 2 0  152 2 0  154 2 0  156 2 0  158 2 0  160 2 0  162 2 0  164 2 0  166 2 0  168 2 0  170 2 0  172 2 0  174 2 0  176 2 0  178 2 0  180 2 0  182 2 0  184 2 0  186 2 0  188 2 0  190 2 0  192 2 0  194 2 0  196 2 0  198 2 0  200 2 0  0 4 0  2 4 0  4 4 0  6 4 0  8 4 0  10 4 0  12 4 0  14 4 0  16 4 0  18 4 0  20 4 0  22 4 0  24 4 0  26 4 0  28 4 0  30 4 0  32 4 0  34 4 0  36 4 0  38 4 0  40 4 0  42 4 0  44 4 0  46 4 0  48 4 0  50 4 0  52 4 0  54 4 0  56 4 0  58 4 0  60 4 0  62 4 0  64 4 0  66 4 0  68 4 0  70 4 0  72 4 0  74 4 0  76 4 0  78 4 0  80 4 0  82 4 0  84 4 0  86 4 0  88 4 0  90 4 0  92 4 0  94 4 0  96 4 0  98 4 0  100 4 0  102 4 0  104 4 0  106 4 0  108 4 0  110 4 0  112 4 0  114 4 0  116 4 0  118 4 0  120 4 0  122 4 0  124 4 0  126 4 0  128 4 0  130 4 0  132 4 0  134 4 0  136 4 0  138 4 0  140 4 0  142 4 0  144 4 0  146 4 0  148 4 0  150 4 0  152 4 0  154 4 0  156 4 0  158 4 0  160 4 0  162 4 0  164 4 0  166 4 0  168 4 0  170 4 0  172 4 0  174 4 0  176 4 0  178 4 0  180 4 0  182 4 0  184 4 0  186 4 0  188 4 0  190 4 0  192 4 0  194 4 0  196 4 0  198 4 0  200 4 0  0 6 0  2 6 0  4 6 0  6 6 0  8 6 0  10 6 0  12 6 0  14 6 0  16 6 0  18 6 0  20 6 0  22 6 0  24 6 0  26 6 0  28 6 0  30 6 0  32 6 0  34 6 0  36 6 0  38 6 0  40 6 0  42 6 0  44 6 0  46 6 0  48 6 0  50 6 0  52 6 0  54 6 0  56 6 0  58 6 0  60 6 0  62 6 0  64 6 0  66 6 0  68 6 0  70 6 0  72 6 0  74 6 0  76 6 0  78 6 0  80 6 0  82 6 0  84 6 0  86 6 0  88 6 0  90 6 0  92 6 0  94 6 0  96 6 0  98 6 0  100 6 0  102 6 0  104 6 0  106 6 0  108 6 0  110 6 0  112 6 0  114 6 0  116 6 0  118 6 0  120 6 0  122 6 0  124 6 0  126 6 0  128 6 0  130 6 0  132 6 0  134 6 0  136 6 0  138 6 0  140 6 0  142 6 0  144 6 0  146 6 0  148 6 0  150 6 0  152 6 0  154 6 0  156 6 0  158 6 0  160 6 0  162 6 0  164 6 0  166 6 0  168 6 0  170 6 0  172 6 0  174 6 0  176 6 0  178 6 0  180 6 0  182 6 0  184 6 0  186 6 0  188 6 0  190 6 0  192 6 0  194 6 0  196 6 0  198 6 0  200 6 0  0 8 0  2 8 0  4 8 0  6 8 0  8 8 0  10 8 0  12 8 0  14 8 0  16 8 0  18 8 0  20 8 0  22 8 0  24 8 0  26 8 0  28 8 0  30 8 0  32 8 0  34 8 0  36 8 0  38 8 0  40 8 0  42 8 0  44 8 0  46 8 0  48 8 0  50 8 0  52 8 0  54 8 0  56 8 0  58 8 0  60 8 0  62 8 0  64 8 0  66 8 0  68 8 0  70 8 0  72 8 0  74 8 0  76 8 0  78 8 0  80 8 0  82 8 0  84 8 0  86 8 0  88 8 0  90 8 0  92 8 0  94 8 0  96 8 0  98 8 0  100 8 0  102 8 0  104 8 0  106 8 0  108 8 0  110 8 0  112 8 0  114 8 0  116 8 0  118 8 0  120 8 0  122 8 0  124 8 0  126 8 0  128 8 0  130 8 0  132 8 0  134 8 0  136 8 0  138 8 0  140 8 0  142 8 0  144 8 0  146 8 0  148 8 0  150 8 0  152 8 0  154 8 0  156 8 0  158 8 0  160 8 0  162 8 0  164 8 0  166 8 0  168 8 0  170 8 0  172 8 0  174 8 0  176 8 0  178 8 0  180 8 0  182 8 0  184 8 0  186 8 0  188 8 0  190 8 0  192 8 0  194 8 0  196 8 0  198 8 0  200 8 0  0 10 0  2 10 0  4 10 0  6 10 0  8 10 0  10 10 0  12 10 0  14 10 0  16 10 0  18 10 0  20 10 0  22 10 0  24 10 0  26 10 0  28 10 0  30 10 0  32 10 0  34 10 0  36 10 0  38 10 0  40 10 0  42 10 0  44 10 0  46 10 0  48 10 0  50 10 0  52 10 0  54 10 0  56 10 0  58 10 0  60 10 0  62 10 0  64 10 0  66 10 0  68 10 0  70 10 0  72 10 0  74 10 0  76 10 0  78 10 0  80 10 0  82 10 0  84 10 0  86 10 0  88 10 0  90 10 0  92 10 0  94 10 0  96 10 0  98 10 0  100 10 0  102 10 0  104 10 0  106 10 0  108 10 0  110 10 0  112 10 0  114 10 0  116 10 0  118 10 0  120 10 0  122 10 0  124 10 0  126 10 0  128 10 0  130 10 0  132 10 0  134 10 0  136 10 0  138 10 0  140 10 0  142 10 0  144 10 0  146 10 0  148 10 0  150 10 0  152 10 0  154 10 0  156 10 0  158 10 0  160 10 0  162 10 0  164 10 0  166 10 0  168 10 0  170 10 0  172 10 0  174 10 0  176 10 0  178 10 0  180 10 0  182 10 0  184 10 0  186 10 0  188 10 0  190 10 0  192 10 0  194 10 0  196 10 0  198 10 0  200 10 0  0 12 0  2 12 0  4 12 0  6 12 0  8 12 0  10 12 0  12 12 0  14 12 0  16 12 0  18 12 0  20 12 0  22 12 0  24 12 0  26 12 0  28 12 0  30 12 0  32 12 0  34 12 0  36 12 0  38 12 0  40 12 0  42 12 0  44 12 0  46 12 0  48 12 0  50 12 0  52 12 0  54 12 0  56 12 0  58 12 0  60 12 0  62 12 0  64 12 0  66 12 0  68 12 0  70 12 0  72 12 0  74 12 0  76 12 0  78 12 0  80 12 0  82 12 0  84 12 0  86 12 0  88 12 0  90 12 0  92 12 0  94 12 0  96 12 0  98 12 0  100 12 0  102 12 0  104 12 0  106 12 0  108 12 0  110 12 0  112 12 0  114 12 0  116 12 0  118 12 0  120 12 0  122 12 0  124 12 0  126 12 0  128 12 0  130 12 0  132 12 0  134 12 0  136 12 0  138 12 0  140 12 0  142 12 0  144 12 0  146 12 0  148 12 0  150 12 0  152 12 0  154 12 0  156 12 0  158 12 0  160 12 0  162 12 0  164 12 0  166 12 0  168 12 0  170 12 0  172 12 0  174 12 0  176 12 0  178 12 0  180 12 0  182 12 0  184 12 0  186 12 0  188 12 0  190 12 0  192 12 0  194 12 0  196 12 0  198 12 0  200 12 0  0 14 0  2 14 0  4 14 0  6 14 0  8 14 0  10 14 0  12 14 0  14 14 0  16 14 0  18 14 0  20 14 0  22 14 0  24 14 0  26 14 0  28 14 0  30 14 0  32 14 0  34 14 0  36 14 0  38 14 0  40 14 0  42 14 0  44 14 0  46 14 0  48 14 0  50 14 0  52 14 0  54 14 0  56 14 0  58 14 0  60 14 0  62 14 0  64 14 0  66 14 0  68 14 0  70 14 0  72 14 0  74 14 0  76 14 0  78 14 0  80 14 0  82 14 0  84 14 0  86 14 0  88 14 0  90 14 0  92 14 0  94 14 0  96 14 0  98 14 0  100 14 0  102 14 0  104 14 0  106 14 0  108 14 0  110 14 0  112 14 0  114 14 0  116 14 0  118 14 0  120 14 0  122 14 0  124 14 0  126 14 0  128 14 0  130 14 0  132 14 0  134 14 0  136 14 0  138 14 0  140 14 0  142 14 0  144 14 0  146 14 0  148 14 0  150 14 0  152 14 0  154 14 0  156 14 0  158 14 0  160 14 0  162 14 0  164 14 0  166 14 0  168 14 0  170 14 0  172 14 0  174 14 0  176 14 0  178 14 0  180 14 0  182 14 0  184 14 0  186 14 0  188 14 0  190 14 0  192 14 0  194 14 0  196 14 0  198 14 0  200 14 0  0 16 0  2 16 0  4 16 0  6 16 0  8 16 0  10 16 0  12 16 0  14 16 0  16 16 0  18 16 0  20 16 0  22 16 0  24 16 0  26 16 0  28 16 0  30 16 0  32 16 0  34 16 0  36 16 0  38 16 0  40 16 0  42 16 0  44 16 0  46 16 0  48 16 0  50 16 0  52 16 0  54 16 0  56 16 0  58 16 0  60 16 0  62 16 0  64 16 0  66 16 0  68 16 0  70 16 0  72 16 0  74 16 0  76 16 0  78 16 0  80 16 0  82 16 0  84 16 0  86 16 0  88 16 0  90 16 0  92 16 0  94 16 0  96 16 0  98 16 0  100 16 0  102 16 0  104 16 0  106 16 0  108 16 0  110 16 0  112 16 0  114 16 0  116 16 0  118 16 0  120 16 0  122 16 0  124 16 0  126 16 0  128 16 0  130 16 0  132 16 0  134 16 0  136 16 0  138 16 0  140 16 0  142 16 0  144 16 0  146 16 0  148 16 0  150 16 0  152 16 0  154 16 0  156 16 0  158 16 0  160 16 0  162 16 0  164 16 0  166 16 0  168 16 0  170 16 0  172 16 0  174 16 0  176 16 0  178 16 0  180 16 0  182 16 0  184 16 0  186 16 0  188 16 0  190 16 0  192 16 0  194 16 0  196 16 0  198 16 0  200 16 0  0 18 0  2 18 0  4 18 0  6 18 0  8 18 0  10 18 0  12 18 0  14 18 0  16 18 0  18 18 0  20 18 0  22 18 0  24 18 0  26 18 0  28 18 0  30 18 0  32 18 0  34 18 0  36 18 0  38 18 0  40 18 0  42 18 0  44 18 0  46 18 0  48 18 0  50 18 0  52 18 0  54 18 0  56 18 0  58 18 0  60 18 0  62 18 0  64 18 0  66 18 0  68 18 0  70 18 0  72 18 0  74 18 0  76 18 0  78 18 0  80 18 0  82 18 0  84 18 0  86 18 0  88 18 0  90 18 0  92 18 0  94 18 0  96 18 0  98 18 0  100 18 0  102 18 0  104 18 0  106 18 0  108 18 0  110 18 0  112 18 0  114 18 0  116 18 0  118 18 0  120 18 0  122 18 0  124 18 0  126 18 0  128 18 0  130 18 0  132 18 0  134 18 0  136 18 0  138 18 0  140 18 0  142 18 0  144 18 0  146 18 0  148 18 0  150 18 0  152 18 0  154 18 0  156 18 0  158 18 0  160 18 0  162 18 0  164 18 0  166 18 0  168 18 0  170 18 0  172 18 0  174 18 0  176 18 0  178 18 0  180 18 0  182 18 0  184 18 0  186 18 0  188 18 0  190 18 0  192 18 0  194 18 0  196 18 0  198 18 0  200 18 0  0 20 0  2 20 0  4 20 0  6 20 0  8 20 0  10 20 0  12 20 0  14 20 0  16 20 0  18 20 0  20 20 0  22 20 0  24 20 0  26 20 0  28 20 0  30 20 0  32 20 0  34 20 0  36 20 0  38 20 0  40 20 0  42 20 0  44 20 0  46 20 0  48 20 0  50 20 0  52 20 0  54 20 0  56 20 0  58 20 0  60 20 0  62 20 0  64 20 0  66 20 0  68 20 0  70 20 0  72 20 0  74 20 0  76 20 0  78 20 0  80 20 0  82 20 0  84 20 0  86 20 0  88 20 0  90 20 0  92 20 0  94 20 0  96 20 0  98 20 0  100 20 0  102 20 0  104 20 0  106 20 0  108 20 0  110 20 0  112 20 0  114 20 0  116 20 0  118 20 0  120 20 0  122 20 0  124 20 0  126 20 0  128 20 0  130 20 0  132 20 0  134 20 0  136 20 0  138 20 0  140 20 0  142 20 0  144 20 0  146 20 0  148 20 0  150 20 0  152 20 0  154 20 0  156 20 0
[...]
<PointData  Scalars="f_271-5"> 
<DataArray  type="Float64"  Name="f_271-5"  format="ascii">9.3769217867222190e-07  8.9069675743647077e-07  7.6531484856044229e-07  6.0131989750868821e-07  4.4637547959701356e-07  3.4013424052297994e-07  3.0471081579408891e-07  3.4148828775776319e-07  4.3214921937863060e-07  5.4363067166992286e-07  6.3780673783997191e-07  6.8412883304150305e-07  6.6964154175942183e-07  6.0091799246562225e-07  4.9763231482177497e-07  3.8278133597819342e-07  2.7514110970832221e-07  1.8613923468460604e-07  1.2007926830924074e-07  7.5859070749067069e-08  4.9115776653802381e-08  3.4424952701369720e-08  2.7212630621883912e-08  2.4867720536556030e-08  2.6691077092075789e-08  3.2823359830131795e-08  4.2830536238589361e-08  5.4860869644947547e-08  6.6091534788721476e-08  7.4656035366722423e-08  8.2685783022307735e-08  9.9924079985109440e-08  1.4778924971756886e-07  2.6425369098854329e-07  5.0887273989113553e-07  9.6267925638191958e-07  1.7097894691526113e-06  2.7850511163595493e-06  4.0936682233664458e-06  5.3608518542526943e-06  6.2010527442598336e-06  6.3192084901113947e-06  5.6996560833829646e-06  4.6058006346191993e-06  3.3962877140436583e-06  2.3351959215981645e-06  1.5287346345545909e-06  9.7145621325196754e-07  6.2947577649383680e-07  5.9260177202452925e-07  1.9023848156220297e-06  1.2679037731611897e-05  9.4881957594741554e-05  7.2756037574493119e-04  5.6807731092575363e-03  4.4503336630134574e-02  2.8189976232728214e-01  7.6314187069659056e-01  9.4277716737763406e-01  9.8013975633870287e-01  9.8112084178466263e-01  9.3257109179826625e-01  6.2838633994787252e-01  8.0004995364589007e-02  -2.1134676475148191e-03  1.1825210931467926e-04  -7.0170152660331275e-06  4.2058445755185281e-07  -2.5162260416612567e-08  2.1881283249334052e-09  1.1206096552501225e-08  9.2377013375909015e-08  2.2534804286622810e-07  3.0434875155600875e-07  3.3650026107929941e-07  3.3359239022619395e-07  3.0229671206638503e-07  2.5238982755572779e-07  1.9552520019679027e-07  1.4197868865324677e-07  9.8442843730135760e-08  6.7516338175405914e-08  4.8496538893887202e-08  3.8790135562940021e-08  3.5327570460411772e-08  3.5555885697193690e-08  3.7802698370305448e-08  4.1024717822347321e-08  4.4134358892215179e-08  4.5169059511039152e-08  4.0425151931028571e-08  2.4647872349342343e-08  5.0848159641040744e-09  2.0821001639209703e-10  3.1575407481820104e-12  -1.3434009918958175e-15  6.4514370564986282e-16  -1.0571330314893812e-15  -7.8989129895748685e-16  -1.7223035129132786e-16  3.2280873235445513e-17  9.0064867105488208e-07  8.5602509179013732e-07  7.3682968601868850e-07  5.8053948911524644e-07  4.3223753221270290e-07  3.2965516876208369e-07  2.9407640607393219e-07  3.2718245230374072e-07  4.1194463855792441e-07  5.1727222681935673e-07  6.0711817568902101e-07  6.5237795022870911e-07  6.4038540448137701e-07  5.7688883682831774e-07  4.8016015581696303e-07  3.7184679694215290e-07  2.6980087961824290e-07  1.8501011662939216e-07  1.2171346510687398e-07  7.8985339842254663e-08  5.2768058773908882e-08  3.7971802299029359e-08  3.0299561049436650e-08  2.7306518563851926e-08  2.8352455330550036e-08  3.3587245845829985e-08  4.2617316574075043e-08  5.3721390909275410e-08  6.4295326259752843e-08  7.2704723159698218e-08  8.1197856065865445e-08  9.9370970693572660e-08  1.4807433461610003e-07  2.6409331038074059e-07  5.0491603150920471e-07  9.4846881987521106e-07  1.6752390493548178e-06  2.7179641309568374e-06  3.9848146620876886e-06  5.2115493801364892e-06  6.0278032341752043e-06  6.1492836765909522e-06  5.5587519344282009e-06  4.5071129679107575e-06  3.3387302770881269e-06  2.3092748181786638e-06  1.5234502719544025e-06  9.7794212417757507e-07  6.4060924684925814e-07  5.9367010471961495e-07  1.7983193272239516e-06  1.1677668729714489e-05  8.6031006077848392e-05  6.4684897400867525e-04  4.9033163521752139e-03  3.6377770290173986e-02  2.2692123249093915e-01  6.9301579566636018e-01  9.1897980777927568e-01  9.6820221919867200e-01  9.6914284863514899e-01  9.0603482397249502e-01  5.6003669199074380e-01  6.8573847839324492e-02  -1.5519261792673596e-03  8.5525782026589311e-05  -5.0473759256631124e-06  3.0242150927305870e-07  -1.8110034191857054e-08  2.0501396071035698e-09  1.4093610924654688e-08  9.8419268398812025e-08  2.1934145918564326e-07  2.9108675765851093e-07  3.2132409092788011e-07  3.1886439342149528e-07  2.8960808328639935e-07  2.4276984442408929e-07  1.8940606926079227e-07  1.3928421219085176e-07  9.8768509920677970e-08  7.0313075161339021e-08  5.3198473528639198e-08  4.4869168992392083e-08  4.2290603204066801e-08  4.2918290835638972e-08  4.5074283565029479e-08  4.7734999289445068e-08  4.9909433373185527e-08  4.9865456815118079e-08  4.4353146953337588e-08  2.8537143051920852e-08  7.2777971294621350e-09  4.1417324328995283e-10  1.1437695131678410e-11  -4.3190122147818082e-14  3.9633947351871028e-14  1.3002554347635417e-14  1.0363242884496978e-14  6.9053936977749808e-15  5.9876662348098092e-15  7.9813393226079285e-07  7.5998998203774475e-07  6.5775829401146098e-07  5.2276964176315168e-07  3.9313234843118447e-07  3.0129114896888737e-07  2.6613225675881112e-07  2.8998298155053279e-07  3.5916344892280307e-07  4.4782716193741828e-07  5.2554472787546237e-07  5.6723360999521807e-07  5.6123395251679433e-07  5.1131230850658886e-07  4.3211919592269694e-07  3.4168991878522289e-07  2.5529548933250444e-07  1.8258484075875273e-07  1.2745908100339290e-07  8.9329549793582480e-08  6.4868583638420001e-08  4.9853629935307699e-08  4.0757912931484718e-08  3.5655183879344865e-08  3.4160724441762776e-08  3.6549874915661568e-08  4.2624086797989461e-08  5.1071918035094980e-08  5.9900385718829568e-08  6.8080167837654210e-08  7.8107363909945108e-08  9.9061617075373853e-08  1.5007448182009632e-07  2.6444990585010692e-07  4.9369464541061329e-07  9.0681908095698430e-07  1.5739508540326266e-06  2.5218182570770362e-06  3.6670192451578561e-06  4.7753645270084871e-06  5.5200685269742948e-06  5.6484231866546176e-06  5.1398591446836290e-06  4.2102501326670182e-06  3.1628249987499535e-06  2.2282271559617767e-06  1.5058608953461535e-06  9.9790094199214127e-07  6.7713673997427309e-07  6.0634839218877507e-07  1.5404166648723044e-06  9.1488938008862880e-06  6.4188616748947787e-05  4.5556860947557537e-04  3.1698260140012608e-03  2.0722645038292780e-02  1.1700098980280459e-01  4.4537859890353543e-01  7.8869070246167849e-01  9.0024655426024391e-01  8.9957032721201846e-01  7.6004254370815816e-01  3.4305831492452171e-01  4.4385236149628499e-02  -2.1854007679222086e-04  1.1482388427683680e-05  -4.8635142828137757e-07  1.8793921063711281e-08  -1.8334431538363505e-10  2.4414606662794337e-09  2.5311517565932451e-08  1.0934095674450153e-07  1.9915221250662826e-07  2.5453487296113181e-07  2.7999731743344521e-07  2.7873044195044373e-07  2.5497372507871840e-07  2.1651112121237068e-07  1.7283058892520491e-07  1.3234373724655762e-07  1.0051216254042432e-07  7.9346501315666739e-08  6.7994787333243980e-08  6.3895834056168699e-08  6.4006242175868473e-08  6.5735571983905947e-08  6.7380723771499023e-08  6.8026636352065850e-08  6.7047504332382061e-08  6.3446287950818511e-08  5.5241221913770924e-08  3.9175994161325588e-08  1.5698243083382847e-08  1.9804187657399084e-09  8.8520514563607738e-11  7.6191779741244050e-12  2.7650011484265829e-13  -1.5968648761836659e-13  -1.4941862192489008e-13  -1.0325358449486660e-13  -8.7527778153257552e-14  6.5288032307639857e-07  6.2369819956133137e-07  5.4510555346019671e-07  4.4029743955959366e-07  3.3796600140114676e-07  2.6315711334685368e-07  2.3107863318092594e-07  2.4445254648641478e-07  2.9371084902883714e-07  3.5982826372620842e-07  4.1995718541563029e-07  4.5478721352523990e-07  4.5465703239433545e-07  4.2137200067560626e-07  3.6520269983412926e-07  2.9945079985781026e-07  2.3569889211033253e-07  1.8136798344303363e-07  1.3941045379261135e-07  1.0924337949161095e-07  8.8204226586066463e-08  7.3104304123522399e-08  6.1516068606688488e-08  5.2433980793565877e-08  4.6129937264773969e-08  4.3372516456268887e-08  4.4497291128603399e-08  4.8920346253147789e-08  5.5526229559590047e-08  6.4020368186082787e-08  7.7010513334876958e-08  1.0250595357208561e-07  1.5676837792361320e-07  2.6762293575994527e-07  4.7743849774922623e-07  8.4187684604804774e-07  1.4158155464241800e-06  2.2173726943543465e-06  3.1758404128129858e-06  4.1015122767473495e-06  4.7324656167091078e-06  4.8644615300589905e-06  4.4748796368310786e-06  3.7298071850769834e-06  2.8711681632131041e-06  2.0901320388230264e-06  1.4755198572308656e-06  1.0357001187492010e-06  7.5011484866121392e-07  6.5750115377361394e-07  1.2607734517448994e-06  6.1760268620656892e-06  3.9570913730960878e-05  2.5586044660207331e-04  1.5709791923532493e-03  8.7672331400778288e-03  4.1721956587270452e-02  1.5807525034756598e-01  4.0163168391614240e-01  5.9482528843315619e-01  5.8540259781661041e-01  3.6530764893019235e-01  1.2338128704060909e-01  2.2870516709010774e-02  9.9952271319829694e-04  -2.5378731801459732e-05  1.9002226117629783e-06  -1.1768933919423882e-07  1.0583395117745578e-08  9.4784979372590938e-09  4.5647146712843604e-08  1.0893523608635184e-07  1.6524294788628801e-07  2.0395739511253527e-07  2.2358437545917723e-07  2.2379081505134757e-07  2.0736619985806339e-07  1.8040074471289308e-07  1.5040764067028576e-07  1.2403177042166747e-07  1.0547534134338647e-07  9.5989867405292926e-08  9.4273610962174837e-08  9.7421394817329192e-08  1.0205716193015383e-07  1.0531994360916199e-07  1.0545071281423552e-07  1.0186203149949022e-07  9.4750438203659621e-08  8.4468529298712335e-08  7.0929162220116061e-08  5.3274681332278597e-08  3.0764446602015585e-08  9.6952781442619096e-09  1.3734881937289138e-09  1.2500935792900277e-10  1.2917151738995891e-11  2.8044821514103549e-12  1.6279609049601920e-12  1.2414104178051728e-12  1.1262408868375341e-12  4.9393304400844381e-07  4.7424231679462583e-07  4.2098104078099235e-07  3.4935548274394202e-07  2.7852357858022296e-07  2.2560909464430455e-07  2.0132841492135785e-07  2.0792395251114618e-07  2.3921007166515594e-07  2.8257233647760628e-07  3.2282377158762090e-07  3.4708977482616787e-07  3.4883686846059800e-07  3.2914053392953620e-07  2.9479245600702526e-07  2.5466756569812064e-07  2.1636736348797935e-07  1.8436323306986753e-07  1.5973456604754328e-07  1.4100032326968665e-07  1.2548117101151663e-07  1.1071097434880096e-07  9.5469114626780528e-08  8.0125474087561551e-08  6.6253113314437639e-08  5.5773904296029680e-08  5.0096150017177400e-08  4.9696842846254584e-08  5.4423021317174935e-08  6.4531589920120684e-08  8.2282819658634888e-08  1.1387384555759230e-07  1.7164882822920655e-07  2.7655297233776334e-07  4.6003617897480288e-07  7.6239959911535194e-07  1.2216029215413824e-06  1.8469753762648184e-06  2.5831924811662999e-06  3.2912490630527317e-06  3.7827406275192239e-06  3.9099269112269747e-06  3.6517430269261561e-06  3.1216838565998454e-06  2.4928812473937028e-06  1.9090076100365928e-06  1.4427707516607578e-06  1.1058225561174000e-06  8.8260605098491800e-07  7.8854568896043571e-07  1.1042626838935804e-06  3.7551869452498248e-06  2.0414560201228828e-05  1.1633145258717360e-04  6.1743790987596958e-04  2.8986968148193544e-03  1.1586020972875975e-02  3.7305676426014435e-02  9.1415383970467792e-02  1.5014761264943413e-01  1.4571906013638294e-01  8.3155815635074182e-02  3.1847026964603849e-02  8.4496609109664736e-03  1.2110110207710907e-03  4.8942413636855426e-05  9.6328819763302035e-07  1.8002054783518904e-07  3.0739773287876177e-08  3.2209387861348937e-08  5.8030790792214839e-08  9.3324251042887878e-08  1.2666847514920859e-07  1.5215488799314792e-07  1.6608991708714123e-07  1.6734393748350827e-07  1.5802424042278968e-07  1.4289539548051662e-07  1.2774892391747853e-07  1.1757851515503880e-07  1.1524859782956014e-07  1.2094374702699397e-07  1.3238929810572025e-07  1.4568670531056147e-07  1.5651475798549691e-07  1.6135708670832950e-07  1.5838179200804672e-07  1.4770253654043470e-07  1.3098897911489130e-07  1.1065450376329027e-07  8.8987198162236341e-08  6.7532968925904608e-08  4.6899137672447495e-08  2.7409550207209297e-08  1.1949549344635226e-08  3.9808512829269814e-09  1.2311891929654864e-09  3.7904390726925616e-10  1.1844533757007957e-10  3.9377856821766108e-11  2.1623447629342803e-11  3.4781169912863885e-07  3.3651715078562098e-07  3.0605363751270833e-07  2.6541882526343411e-07  2.2601067929857975e-07  1.9794847894073881e-07  1.8722796315882523e-07  1.9438611230053908e-07  2.1475211347113714e-07  2.4010937122851249e-07  2.6141961646592292e-07  2.7185623168213770e-07  2.6898474465689128e-07  2.5510152069247332e-07  2.3564823011697123e-07  2.1662172339634548e-07  2.0223376201949271e-07  1.9366379384827671e-07  1.8910831124195122e-07  1.8488327401417072e-07  1.7709519113552815e-07  1.6325649922717230e-07  1.4324096171524470e-07  1.1926004442788676e-07  9.4994359300431696e-08  7.4364110002784573e-08  6.0484736303103246e-08  5.5174886324835189e-08  5.9133781775177129e-08  7.2713637292247018e-08  9.7126288365113663e-08  1.3594245560118282e-07  1.9681082258696370e-07  2.9324533534752753e-07  4.4573800430042155e-07  6.8008027176003236e-07  1.0192510855869162e-06  1.4661660746166190e-06  1.9817387343757490e-06  2.4749392023364130e-06  2.8255070745066628e-06  2.9392177765411307e-06  2.8003995470779809e-06  2.4787140135764783e-06  2.0857859012889064e-06  1.7195713591206886e-06  1.4336031617672018e-06  1.2371220191917165e-06  1.1130907542064733e-06  1.0535800139564480e-06  1.1808221279109546e-06  2.3497192003820579e-06  9.1959492025789376e-06  4.3979725561182892e-05  1.9908260422997235e-04  7.9120579079311264e-04  2.6420588372516461e-03  7.1240768829241470e-03  1.4543689584277755e-02  2.1056777873382941e-02  2.0710785730638656e-02  1.3887305321490934e-02  6.5879632343423741e-03  2.2941373636593131e-03  5.6512343534093328e-04  8.5110770517302025e-05  7.5394820419403260e-06  7.5359376222921040e-07  1.2691809406641940e-07  5.3365937812637056e-08  5.6867542365018164e-08  7.5097109310444681e-08  9.5073205222832620e-08  1.1104957057774481e-07  1.1987858367271773e-07  1.2105112897483360e-07  1.1679096404075068e-07  1.1131611180067613e-07  1.0944486844106163e-07  1.1505370333085324e-07  1.2984112438321309e-07  1.5268196632804895e-07  1.7972933145403355e-07  2.0530527349209073e-07  2.2341907455067216e-07  2.2948243410177863e-07  2.2162475072318108e-07  2.0112010744238398e-07  1.7181009227260765e-07  1.3883052342741706e-07  1.0717623830538834e-07  8.0563961767956860e-08  6.0764463805291917e-08  4.7299900954353386e-08  3.7509790599104202e-08  2.8270235985706240e-08  1.8924666361809735e-08  1.1455526600584833e-08  7.0187496056899548e-09  4.9141081668825246e-09  4.3069995008794220e-09  2.3218573684343407e-07  2.2725462142811603e-07  2.1452368471145848e-07  1.9932596616775731e-07  1.8809299552821565e-07  1.8581196105193227e-07  1.9411682156466282e-07  2.1066044686711905e-07  2.2992916019118975e-07  2.4522626236081954e-07  2.5117176645021436e-07  2.4579006807107010e-07  2.3130097694429952e-07  2.1324385954055429e-07  1.9832946668355953e-07  1.9193892708406157e-07  1.9618995070114663e-07  2.0913975889538246e-07  2.2532406753388774e-07  2.3751785436256856e-07  2.3921584000934006e-07  2.2692942206940750e-07  2.0134190253591845e-07  1.6688618844495090e-07  1.3011513420291543e-07  9.7738010275064825e-08  7.5112079121773083e-08  6.5535062209469048e-08  7.0288484499904905e-08  8.9231728859453131e-08  1.2178330015753363e-07  1.6820392759279158e-07  2.3110192320487926e-07  3.1691993295079207e-07  4.3672535122218642e-07  6.0490669657964864e-07  8.3385256053902057e-07  1.1237294687513181e-06  1.4506339660885265e-06  1.7623611000818519e-06  1.9919139571372105e-06  2.0876398557521585e-06  2.0416892580561639e-06  1.8950241984107957e-06  1.7155426523096440e-06  1.5665620547843590e-06  1.4841958653528956e-06  1.4692464259057364e-06  1.4920036561630646e-06  1.5143089632533254e-06  1.5556296706306963e-06  1.9277778183773098e-06  4.1790938338378345e-06  1.4608399540700873e-05  5.4895022167891975e-05  1.8462887319376341e-04  5.2204514227436856e-04  1.1865005486133597e-03  2.0876843284152753e-03  2.7766285459818636e-03  2.7688472272796795e-03  2.0693330199599608e-03  1.1660228374637317e-03  5.0104237119541505e-04  1.6493812287394818e-04  4.0528614084643035e-05  7.1590798905827759e-06  1.0102464110028579e-06  1.6991026586527205e-07  6.0398079584122647e-08  5.3911488622591936e-08  6.5008390818782129e-08  7.8054289290769584e-08  8.7827346949132427e-08  9.2229699589100568e-08  9.1796337274680266e-08  8.9492254059570821e-08  8.9865250825365657e-08  9.7680996691950001e-08  1.1640648048098682e-07  1.4689688435803810e-07  1.8660991684772658e-07  2.2967222801568713e-07  2.6801525210223865e-07  2.9344988461475023e-07  3.0006684937639981e-07  2.8606061326174203e-07  2.5424595389788619e-07  2.1110965041778433e-07  1.6486173115589508e-07  1.2325970726278022e-07  9.1868921451711135e-08  7.3065845030650609e-08  6.5773439567954458e-08  6.5874783226087724e-08  6.7483527425550334e-08  6.5497652401569906e-08  5.8699873663345957e-08  5.0048958157380912e-08  4.3363910529945437e-08  4.0915132654065814e-08  1.5367830577635999e-07  1.5285159455249887e-07  1.5205569437258091e-07  1.5543946570321884e-07  1.6736820355280580e-07  1.8991390223302806e-07  2.2118027905333449e-07  2.5516710725441425e-07  2.8335983627097506e-07  2.9764045091835641e-07  2.9349038270308555e-07  2.7210298984605277e-07  2.4035357093339323e-07  2.0857499953034665e-07  1.8712317123941949e-07  1.8308409364500939e-07  1.9810580964199593e-07  2.2778323961497799e-07  2.6272791433555261e-07  2.9125427231242350e-07  3.0309717159856511e-07  2.9284994196539344e-07  2.6161555092298585e-07  2.1619048804568160e-07  1.6643879562395933e-07  1.2229480252289696e-07  9.1577234814432477e-08  7.8985317842214720e-08  8.6033480691497046e-08  1.1156521725904116e-07  1.5266859269507794e-07  2.0596996111713005e-07  2.6923318654533717e-07  3.4294428208029776e-07  4.3121759374090334e-07  5.4107408827006737e-07  6.7920579765169196e-07  8.4627468766500687e-07  1.0309693578688426e-06  1.2084786843479627e-06  1.3477374157041799e-06  1.4263923845299999e-06  1.4451054729125286e-06  1.4313685803974966e-06  1.4301147297586938e-06  1.4862888993762930e-06  1.6254107800443192e-06  1.8359973733905110e-06  2.0616742424217221e-06  2.2182642516551745e-06  2.2495037916228129e-06  2.2367540030506852e-06  2.6528197552794650e-06  5.0734981914652579e-06  1.3859516609356433e-05  3.8544027618564488e-05  9.3070444989403034e-05  1.8453150096156697e-04  2.9371637167188475e-04  3.7208145271586807e-04  3.7401558971704392e-04  2.9815963715932713e-04  1.8861215844650714e-04  9.4840344181213715e-05  3.7998383033824843e-05  1.2123217690842051e-05  3.0664678678274307e-06  6.3554319582195207e-07  1.3779986427349369e-07  5.8977882453595344e-08  5.5837950111111218e-08  6.6251955051923039e-08  7.6945925147406840e-08  8.3305988245196822e-08  8.3984043393167207e-08  8.0524967922542732e-08  7.7007037022386655e-08  7.8983054433155401e-08  9.1915024959444497e-08  1.1946631716427993e-07  1.6199363681055388e-07  2.1561982467840234e-07  2.7235761260623176e-07  3.2163146860927539e-07  3.5302760854835789e-07  3.5941158328458426e-07  3.3919515632022480e-07  2.9683254764662820e-07  2.4141458918993799e-07  1.8401200244294805e-07  1.3477528425786376e-07  1.0064952577750768e-07  8.4141614726200074e-08  8.3207461224736466e-08  9.2181980252881744e-08  1.0366835190434412e-07  1.1114291201757984e-07  1.1150660300298989e-07  1.0621212732734857e-07  9.9874837444430687e-08  9.7132678692492802e-08  1.0927714660782901e-07  1.1059791968925103e-07  1.1657320771650335e-07  1.3201292931253111e-07  1.6152211605786331e-07  2.0626058838754853e-07  2.6190279204295161e-07  3.1866316670103371e-07  3.6364242793192450e-07  3.8501629262884598e-07  3.7664699297504093e-07  3.4106225788883370e-07  2.8919747306314404e-07  2.3687787813958800e-07  1.9965517993453731e-07  1.8809896079409401e-07  2.0490165065216758e-07  2.4419231341030312e-07  2.9307171508082536e-07  3.3528716236614620e-07  3.563642966449100