<?xml version="1.0"?>
<VTKFile type="UnstructuredGrid"  version="0.1"  >
<UnstructuredGrid>
<Piece  NumberOfPoints="20201" NumberOfCells="40000">
<Points>
<DataArray  type="Float64"  NumberOfComponents="3"  format="ascii">0 0 0  2 0 0  4 0 0  6 0 0  8 0 0  10 0 0  12 0 0  14 0 0  16 0 0  18 0 0  20 0 0  22 0 0  24 0 0  26 0 0  28 0 0  30 0 0  32 0 0  34 0 0  36 0 0  38 0 0  40 0 0  42 0 0  44 0 0  46 0 0  48 0 0  50 0 0  52 0 0  54 0 0  56 0 0  58 0 0  60 0 0  62 0 0  64 0 0  66 0 0  68 0 0  70 0 0  72 0 0  74 0 0  76 0 0  78 0 0  80 0 0  82 0 0  84 0 0  86 0 0  88 0 0  90 0 0  92 0 0  94 0 0  96 0 0  98 0 0  100 0 0  102 0 0  104 0 0  106 0 0  108 0 0  110 0 0  112 0 0  114 0 0  116 0 0  118 0 0  120 0 0  122 0 0  124 0 0  126 0 0  128 0 0  130 0 0  132 0 0  134 0 0  136 0 0  138 0 0  140 0 0  142 0 0  144 0 0  146 0 0  148 0 0  150 0 0  152 0 0  154 0 0  156 0 0  158 0 0  160 0 0  162 0 0  164 0 0  166 0 0  168 0 0  170 0 0  172 0 0  174 0 0  176 0 0  178 0 0  180 0 0  182 0 0  184 0 0  186 0 0  188 0 0  190 0 0  192 0 0  194 0 0  196 0 0  198 0 0  200 0 0  0 2 0  2 2 0  4 2 0  6 2 0  8 2 0  10 2 0  12 2 0  14 2 0  16 2 0  18 2 0  20 2 0  22 2 0  24 2 0  26 2 0  28 2 0  30 2 0  32 2 0  34 2 0  36 2 0  38 2 0  40 2 0  42 2 0  44 2 0  46 2 0  48 2 0  50 2 0  52 2 0  54 2 0  56 2 0  58 2 0  60 2 0  62 2 0  64 2 0  66 2 0  68 2 0  70 2 0  72 2 0  74 2 0  76 2 0  78 2 0  80 2 0  82 2 0  84 2 0  86 2 0  88 2 0  90 2 0  92 2 0  94 2 0  96 2 0  98 2 0  100 2 0  102 2 0  104 2 0  106 2 0  108 2 0  110 2 0  112 2 0  114 2 0  116 2 0  118 2 0  120 2 0  122 2 0  124 2 0  126 2 0  128 2 0  130 2 0  132 2 0  134 2 0  136 2 0  138 2 0  140 2 0  142 2 0  144 2 0  146 2 0  148 2 0  150 2 0  152 2 0  154 2 0  156 2 0  158 2 0  160 2 0  162 2 0  164 2 0  166 2 0  168 2 0  170 2 0  172 2 0  174 2 0  176 2 0  178 2 0  180 2 0  182 2 0  184 2 0  186 2 0  188 2 0  190 2 0  192 2 0  194 2 0  196 2 0  198 2 0  200 2 0  0 4 0  2 4 0  4 4 0  6 4 0  8 4 0  10 4 0  12 4 0  14 4 0  16 4 0  18 4 0  20 4 0  22 4 0  24 4 0  26 4 0  28 4 0  30 4 0  32 4 0  34 4 0  36 4 0  38 4 0  40 4 0  42 4 0  44 4 0  46 4 0  48 4 0  50 4 0  52 4 0  54 4 0  56 4 0  58 4 0  60 4 0  62 4 0  64 4 0  66 4 0  68 4 0  70 4 0  72 4 0  74 4 0  76 4 0  78 4 0  80 4 0  82 4 0  84 4 0  86 4 0  88 4 0  90 4 0  92 4 0  94 4 0  96 4 0  98 4 0  100 4 0  102 4 0  104 4 0  106 4 0  108 4 0  110 4 0  112 4 0  114 4 0  116 4 0  118 4 0  120 4 0  122 4 0  124 4 0  126 4 0  128 4 0  130 4 0  132 4 0  134 4 0  136 4 0  138 4 0  140 4 0  142 4 0  144 4 0  146 4 0  148 4 0  150 4 0  152 4 0  154 4 0  156 4 0  158 4 0  160 4 0  162 4 0  164 4 0  166 4 0  168 4 0  170 4 0  172 4 0  174 4 0  176 4 0  178 4 0  180 4 0  182 4 0  184 4 0  186 4 0  188 4 0  190 4 0  192 4 0  194 4 0  196 4 0  198 4 0  200 4 0  0 6 0  2 6 0  4 6 0  6 6 0  8 6 0  10 6 0  12 6 0  14 6 0  16 6 0  18 6 0  20 6 0  22 6 0  24 6 0  26 6 0  28 6 0  30 6 0  32 6 0  34 6 0  36 6 0  38 6 0  40 6 0  42 6 0  44 6 0  46 6 0  48 6 0  50 6 0  52 6 0  54 6 0  56 6 0  58 6 0  60 6 0  62 6 0  64 6 0  66 6 0  68 6 0  70 6 0  72 6 0  74 6 0  76 6 0  78 6 0  80 6 0  82 6 0  84 6 0  86 6 0  88 6 0  90 6 0  92 6 0  94 6 0  96 6 0  98 6 0  100 6 0  102 6 0  104 6 0  106 6 0  108 6 0  110 6 0  112 6 0  114 6 0  116 6 0  118 6 0  120 6 0  122 6 0  124 6 0  126 6 0  128 6 0  130 6 0  132 6 0  134 6 0  136 6 0  138 6 0  140 6 0  142 6 0  144 6 0  146 6 0  148 6 0  150 6 0  152 6 0  154 6 0  156 6 0  158 6 0  160 6 0  162 6 0  164 6 0  166 6 0  168 6 0  170 6 0  172 6 0  174 6 0  176 6 0  178 6 0  180 6 0  182 6 0  184 6 0  186 6 0  188 6 0  190 6 0  192 6 0  194 6 0  196 6 0  198 6 0  200 6 0  0 8 0  2 8 0  4 8 0  6 8 0  8 8 0  10 8 0  12 8 0  14 8 0  16 8 0  18 8 0  20 8 0  22 8 0  24 8 0  26 8 0  28 8 0  30 8 0  32 8 0  34 8 0  36 8 0  38 8 0  40 8 0  42 8 0  44 8 0  46 8 0  48 8 0  50 8 0  52 8 0  54 8 0  56 8 0  58 8 0  60 8 0  62 8 0  64 8 0  66 8 0  68 8 0  70 8 0  72 8 0  74 8 0  76 8 0  78 8 0  80 8 0  82 8 0  84 8 0  86 8 0  88 8 0  90 8 0  92 8 0  94 8 0  96 8 0  98 8 0  100 8 0  102 8 0  104 8 0  106 8 0  108 8 0  110 8 0  112 8 0  114 8 0  116 8 0  118 8 0  120 8 0  122 8 0  124 8 0  126 8 0  128 8 0  130 8 0  132 8 0  134 8 0  136 8 0  138 8 0  140 8 0  142 8 0  144 8 0  146 8 0  148 8 0  150 8 0  152 8 0  154 8 0  156 8 0  158 8 0  160 8 0  162 8 0  164 8 0  166 8 0  168 8 0  170 8 0  172 8 0  174 8 0  176 8 0  178 8 0  180 8 0  182 8 0  184 8 0  186 8 0  188 8 0  190 8 0  192 8 0  194 8 0  196 8 0  198 8 0  200 8 0  0 10 0  2 10 0  4 10 0  6 10 0  8 10 0  10 10 0  12 10 0  14 10 0  16 10 0  18 10 0  20 10 0  22 10 0  24 10 0  26 10 0  28 10 0  30 10 0  32 10 0  34 10 0  36 10 0  38 10 0  40 10 0  42 10 0  44 10 0  46 10 0  48 10 0  50 10 0  52 10 0  54 10 0  56 10 0  58 10 0  60 10 0  62 10 0  64 10 0  66 10 0  68 10 0  70 10 0  72 10 0  74 10 0  76 10 0  78 10 0  80 10 0  82 10 0  84 10 0  86 10 0  88 10 0  90 10 0  92 10 0  94 10 0  96 10 0  98 10 0  100 10 0  102 10 0  104 10 0  106 10 0  108 10 0  110 10 0  112 10 0  114 10 0  116 10 0  118 10 0  120 10 0  122 10 0  124 10 0  126 10 0  128 10 0  130 10 0  132 10 0  134 10 0  136 10 0  138 10 0  140 10 0  142 10 0  144 10 0  146 10 0  148 10 0  150 10 0  152 10 0  154 10 0  156 10 0  158 10 0  160 10 0  162 10 0  164 10 0  166 10 0  168 10 0  170 10 0  172 10 0  174 10 0  176 10 0  178 10 0  180 10 0  182 10 0  184 10 0  186 10 0  188 10 0  190 10 0  192 10 0  194 10 0  196 10 0  198 10 0  200 10 0  0 12 0  2 12 0  4 12 0  6 12 0  8 12 0  10 12 0  12 12 0  14 12 0  16 12 0  18 12 0  20 12 0  22 12 0  24 12 0  26 12 0  28 12 0  30 12 0  32 12 0  34 12 0  36 12 0  38 12 0  40 12 0  42 12 0  44 12 0  46 12 0  48 12 0  50 12 0  52 12 0  54 12 0  56 12 0  58 12 0  60 12 0  62 12 0  64 12 0  66 12 0  68 12 0  70 12 0  72 12 0  74 12 0  76 12 0  78 12 0  80 12 0  82 12 0  84 12 0  86 12 0  88 12 0  90 12 0  92 12 0  94 12 0  96 12 0  98 12 0  100 12 0  102 12 0  104 12 0  106 12 0  108 12 0  110 12 0  112 12 0  114 12 0  116 12 0  118 12 0  120 12 0  122 12 0  124 12 0  126 12 0  128 12 0  130 12 0  132 12 0  134 12 0  136 12 0  138 12 0  140 12 0  142 12 0  144 12 0  146 12 0  148 12 0  150 12 0  152 12 0  154 12 0  156 12 0  158 12 0  160 12 0  162 12 0  164 12 0  166 12 0  168 12 0  170 12 0  172 12 0  174 12 0  176 12 0  178 12 0  180 12 0  182 12 0  184 12 0  186 12 0  188 12 0  190 12 0  192 12 0  194 12 0  196 12 0  198 12 0  200 12 0  0 14 0  2 14 0  4 14 0  6 14 0  8 14 0  10 14 0  12 14 0  14 14 0  16 14 0  18 14 0  20 14 0  22 14 0  24 14 0  26 14 0  28 14 0  30 14 0  32 14 0  34 14 0  36 14 0  38 14 0  40 14 0  42 14 0  44 14 0  46 14 0  48 14 0  50 14 0  52 14 0  54 14 0  56 14 0  58 14 0  60 14 0  62 14 0  64 14 0  66 14 0  68 14 0  70 14 0  72 14 0  74 14 0  76 14 0  78 14 0  80 14 0  82 14 0  84 14 0  86 14 0  88 14 0  90 14 0  92 14 0  94 14 0  96 14 0  98 14 0  100 14 0  102 14 0  104 14 0  106 14 0  108 14 0  110 14 0  112 14 0  114 14 0  116 14 0  118 14 0  120 14 0  122 14 0  124 14 0  126 14 0  128 14 0  130 14 0  132 14 0  134 14 0  136 14 0  138 14 0  140 14 0  142 14 0  144 14 0  146 14 0  148 14 0  150 14 0  152 14 0  154 14 0  156 14 0  158 14 0  160 14 0  162 14 0  164 14 0  166 14 0  168 14 0  170 14 0  172 14 0  174 14 0  176 14 0  178 14 0  180 14 0  182 14 0  184 14 0  186 14 0  188 14 0  190 14 0  192 14 0  194 14 0  196 14 0  198 14 0  200 14 0  0 16 0  2 16 0  4 16 0  6 16 0  8 16 0  10 16 0  12 16 0  14 16 0  16 16 0  18 16 0  20 16 0  22 16 0  24 16 0  26 16 0  28 16 0  30 16 0  32 16 0  34 16 0  36 16 0  38 16 0  40 16 0  42 16 0  44 16 0  46 16 0  48 16 0  50 16 0  52 16 0  54 16 0  56 16 0  58 16 0  60 16 0  62 16 0  64 16 0  66 16 0  68 16 0  70 16 0  72 16 0  74 16 0  76 16 0  78 16 0  80 16 0  82 16 0  84 16 0  86 16 0  88 16 0  90 16 0  92 16 0  94 16 0  96 16 0  98 16 0  100 16 0  102 16 0  104 16 0  106 16 0  108 16 0  110 16 0  112 16 0  114 16 0  116 16 0  118 16 0  120 16 0  122 16 0  124 16 0  126 16 0  128 16 0  130 16 0  132 16 0  134 16 0  136 16 0  138 16 0  140 16 0  142 16 0  144 16 0  146 16 0  148 16 0  150 16 0  152 16 0  154 16 0  156 16 0  158 16 0  160 16 0  162 16 0  164 16 0  166 16 0  168 16 0  170 16 0  172 16 0  174 16 0  176 16 0  178 16 0  180 16 0  182 16 0  184 16 0  186 16 0  188 16 0  190 16 0  192 16 0  194 16 0  196 16 0  198 16 0  200 16 0  0 18 0  2 18 0  4 18 0  6 18 0  8 18 0  10 18 0  12 18 0  14 18 0  16 18 0  18 18 0  20 18 0  22 18 0  24 18 0  26 18 0  28 18 0  30 18 0  32 18 0  34 18 0  36 18 0  38 18 0  40 18 0  42 18 0  44 18 0  46 18 0  48 18 0  50 18 0  52 18 0  54 18 0  56 18 0  58 18 0  60 18 0  62 18 0  64 18 0  66 18 0  68 18 0  70 18 0  72 18 0  74 18 0  76 18 0  78 18 0  80 18 0  82 18 0  84 18 0  86 18 0  88 18 0  90 18 0  92 18 0  94 18 0  96 18 0  98 18 0  100 18 0  102 18 0  104 18 0  106 18 0  108 18 0  110 18 0  112 18 0  114 18 0  116 18 0  118 18 0  120 18 0  122 18 0  124 18 0  126 18 0  128 18 0  130 18 0  132 18 0  134 18 0  136 18 0  138 18 0  140 18 0  142 18 0  144 18 0  146 18 0  148 18 0  150 18 0  152 18 0  154 18 0  156 18 0  158 18 0  160 18 0  162 18 0  164 18 0  166 18 0  168 18 0  170 18 0  172 18 0  174 18 0  176 18 0  178 18 0  180 18 0  182 18 0  184 18 0  186 18 0  188 18 0  190 18 0  192 18 0  194 18 0  196 18 0  198 18 0  200 18 0  0 20 0  2 20 0  4 20 0  6 20 0  8 20 0  10 20 0  12 20 0  14 20 0  16 20 0  18 20 0  20 20 0  22 20 0  24 20 0  26 20 0  28 20 0  30 20 0  32 20 0  34 20 0  36 20 0  38 20 0  40 20 0  42 20 0  44 20 0  46 20 0  48 20 0  50 20 0  52 20 0  54 20 0  56 20 0  58 20 0  60 20 0  62 20 0  64 20 0  66 20 0  68 20 0  70 20 0  72 20 0  74 20 0  76 20 0  78 20 0  80 20 0  82 20 0  84 20 0  86 20 0  88 20 0  90 20 0  92 20 0  94 20 0  96 20 0  98 20 0  100 20 0  102 20 0  104 20 0  106 20 0  108 20 0  110 20 0  112 20 0  114 20 0  116 20 0  118 20 0  120 20 0  122 20 0  124 20 0  126 20 0  128 20 0  130 20 0  132 20 0  134 20 0  136 20 0  138 20 0  140 20 0  142 20 0  144 20 0  146 20 0  148 20 0  150 20 0  152 20 0  154 20 0  156 20 0
[...]
<PointData  Scalars="f_271-5"> 
<DataArray  type="Float64"  Name="f_271-5"  format="ascii">1.6988980056776702e-11  1.6476512469791762e-11  1.5081221203984398e-11  1.3182750095599757e-11  1.1276843795877806e-11  9.8249203414926169e-12  9.1249918515778221e-12  9.2398132921087768e-12  9.9966103492652689e-12  1.1052744990627845e-11  1.2005019354390338e-11  1.2507933854259410e-11  1.2363023242215434e-11  1.1552507502950671e-11  1.0213407413291869e-11  8.5715236870344172e-12  6.8659784397254148e-12  5.2906624135379527e-12  3.9651438578539806e-12  2.9338414121625389e-12  2.1842074942686427e-12  1.6725745751872349e-12  1.3479120533651626e-12  1.1671704763401401e-12  1.1003249036758253e-12  1.1279480086708175e-12  1.2379065671071243e-12  1.4292439513271904e-12  1.7299244398091980e-12  2.2314259994260510e-12  3.1380800527394888e-12  4.8222689996233360e-12  7.8657592215801508e-12  1.3050546943261491e-11  2.1245051846644005e-11  3.3134213328934912e-11  4.8797544972836565e-11  6.7261456252028965e-11  8.6290694434148930e-11  1.0272739406476348e-10  1.1365180053746789e-10  1.1952248045107676e-10  1.3927818507003367e-10  3.1322208295358940e-10  1.6465052075194846e-09  1.1415021108389651e-08  8.2621295697009615e-08  6.0346668881654187e-07  4.4354030483774319e-06  3.2844498728287346e-05  2.4561475925287992e-04  1.8597675140601595e-03  1.4249717764999824e-02  1.0608752298831377e-01  5.0366476851915531e-01  8.8487900357616933e-01  9.7584858664397833e-01  9.9399061653809229e-01  9.9764870035582420e-01  9.9599022790010072e-01  9.8118839291438076e-01  8.8435376354947015e-01  4.1692885645920458e-01  2.0918922930748166e-02  -8.8904006362845744e-04  4.9866080936782179e-05  -2.8873034826523191e-06  1.6827872603748293e-07  -9.8273894216994697e-09  5.7431918085856954e-10  -3.3539606346833296e-11  1.9526357981666390e-12  2.3883894748272706e-14  1.5995928952544833e-12  4.1988565400421136e-12  5.4670914169050137e-12  5.5714759815250589e-12  5.1002723503279838e-12  4.3889563726918283e-12  3.6358265447749807e-12  2.9640522616238935e-12  2.4389010745719480e-12  2.0769005201026070e-12  1.8587985537624553e-12  1.7453357629547342e-12  1.6910979423050027e-12  1.6520786762591303e-12  1.5838542727638802e-12  1.4274936609225447e-12  1.0844204157049216e-12  4.8527685120873910e-13  5.2862883392482559e-14  3.4857254156861372e-16  3.0767551662977086e-17  -8.5719489956078335e-19  8.8605190113526199e-20  -6.6796980877781211e-21  8.8407150924744855e-22  -7.3304695726263412e-23  1.2529600882892920e-23  8.7837777565451958e-25  1.6510163821283684e-11  1.6016468899703527e-11  1.4672012991962200e-11  1.2841889654157594e-11  1.1003098567013678e-11  9.6000049107531564e-12  8.9201214403019590e-12  9.0247839293422148e-12  9.7486629883210086e-12  1.0762771893986592e-11  1.1679527161928887e-11  1.2166488782628893e-11  1.2032355896186454e-11  1.1259463648249284e-11  9.9790054332072805e-12  8.4075457206567194e-12  6.7743313658401394e-12  5.2648396708492604e-12  3.9927958368324088e-12  2.9995986462099722e-12  2.2722046009030088e-12  1.7683921999824751e-12  1.4398468114450173e-12  1.2468880288103302e-12  1.1630517358421988e-12  1.1723746582459897e-12  1.2658787606192752e-12  1.4451333656962958e-12  1.7393752486155742e-12  2.2390520228315668e-12  3.1436949526036103e-12  4.8154171085363117e-12  7.8188063732240564e-12  1.2911639404971974e-11  2.0934016691572275e-11  3.2546445211476759e-11  4.7821339074644688e-11  6.5810531497542437e-11  8.4344736938420078e-11  1.0036234212362952e-10  1.1103076860064673e-10  1.1676891455285400e-10  1.3571187392783244e-10  3.0187643557218641e-10  1.5718482422964750e-09  1.0840457514026872e-08  7.8081104569416724e-08  5.6707157871157191e-07  4.1388364621723301e-06  3.0376591000084326e-05  2.2448174871680411e-04  1.6717962653075306e-03  1.2479162222161468e-02  8.9855446246170312e-02  4.4768281093709672e-01  8.6094200935341825e-01  9.6946026642233107e-01  9.9175891208519096e-01  9.9644617317001560e-01  9.9459173923043664e-01  9.7772566454615162e-01  8.7068192936805067e-01  3.8781489871883063e-01  1.8340817760526634e-02  -7.6399070134382588e-04  4.2354198399769271e-05  -2.4282159964374213e-06  1.4023131239616051e-07  -8.1246890755713003e-09  4.7223942258746378e-10  -2.7552181445750552e-11  1.6148881485411615e-12  7.7521563878949701e-14  1.7313167592956444e-12  4.1906830469729776e-12  5.3454308662086270e-12  5.4312924490503084e-12  4.9834995385388238e-12  4.3129722007525712e-12  3.6075187596631038e-12  2.9842992825250936e-12  2.5042749746274636e-12  2.1806475328582411e-12  1.9916362874739515e-12  1.8962982789527703e-12  1.8486123831416963e-12  1.8054103356909948e-12  1.7250420027362479e-12  1.5539957872539407e-12  1.2013241880322860e-12  5.8356786001078885e-13  7.8818228905779169e-14  1.3425805189077177e-15  5.1233616353692578e-17  1.1036904600422790e-18  -8.7653338999752197e-20  1.4255169045442673e-20  -4.4557926108419110e-21  -5.4402335416534538e-22  -2.5814491840606675e-22  -1.2959394031587359e-22  1.5161174536271565e-11  1.4720681874365005e-11  1.3520610787271250e-11  1.1885582614829088e-11  1.0240235870432245e-11  8.9808952053648373e-12  8.3648559925403956e-12  8.4482490093037538e-12  9.0852493577355074e-12  9.9840356332019625e-12  1.0800325756502764e-11  1.1238654961722500e-11  1.1128945613942892e-11  1.0455442588373025e-11  9.3345610601494944e-12  7.9580529037182815e-12  6.5278153221599897e-12  5.2053086023055537e-12  4.0868817751328629e-12  3.2042405489739131e-12  2.5418518827168212e-12  2.0608623466761576e-12  1.7204404634555729e-12  1.4907473823004107e-12  1.3560568767319203e-12  1.3109853369584715e-12  1.3561329292294947e-12  1.5005519181199992e-12  1.7770005354796389e-12  2.2725083841496029e-12  3.1721691291118955e-12  4.8079652605445033e-12  7.6947750478853403e-12  1.2520943172377033e-11  2.0045977124689007e-11  3.0861402986305566e-11  4.5020335668445405e-11  6.1647821604397238e-11  7.8762804498989930e-11  9.3577928915053839e-11  1.0351028551433238e-10  1.0887581657801479e-10  1.2559852413117088e-10  2.7047397569496176e-10  1.3679997138854524e-09  9.2853037353265539e-09  6.5908045763058393e-08  4.7059655455413805e-07  3.3638115397280349e-06  2.4044165231675980e-05  1.7160728645025254e-04  1.2178188841503778e-03  8.4807107195173977e-03  5.5673867435027169e-02  2.9895234365071727e-01  7.5962436833279301e-01  9.4075500379491983e-01  9.8089715296246693e-01  9.9021118481758907e-01  9.8735005577194801e-01  9.6116139255164212e-01  8.1120275979470047e-01  3.0049879682900843e-01  1.3232032897332406e-02  -4.9919045559795937e-04  2.6509567139819015e-05  -1.4579228417098769e-06  7.9996108735941511e-08  -4.3280529670180287e-09  2.2846090161367284e-10  -1.1551635634451932e-11  5.4456499745300852e-13  3.0221151214543072e-13  2.0846271297799162e-12  4.1185399898765064e-12  4.9939216625219772e-12  5.0398840949585075e-12  4.6602631677202072e-12  4.1053537458596280e-12  3.5355445530405514e-12  3.0514384928027028e-12  2.7015930238665115e-12  2.4892373583038683e-12  2.3847395288150219e-12  2.3417723993689248e-12  2.3122330588888690e-12  2.2553011548330032e-12  2.1374212634787311e-12  1.9207708846435703e-12  1.5387421456208606e-12  8.9623265296623971e-13  2.0818401376123354e-13  1.0108643818446375e-14  3.6991992789370314e-16  1.7811677203146628e-18  2.3159250156544091e-18  1.3630495156450906e-19  9.5135676337339821e-20  3.4435331234729135e-20  1.6944899986121760e-20  1.2572868526555338e-20  1.3179824152463338e-11  1.2818501312686653e-11  1.1834249680016540e-11  1.0493795853054907e-11  9.1462083146785889e-12  8.1172444878633015e-12  7.6178710112840674e-12  7.6928855443634409e-12  8.2205992605448551e-12  8.9597792987349444e-12  9.6275754662532358e-12  9.9833182813258824e-12  9.8912182010749936e-12  9.3431471123871389e-12  8.4388571630396281e-12  7.3374379255895818e-12  6.2021753906250628e-12  5.1584017926467543e-12  4.2742130011084518e-12  3.5634655682013741e-12  3.0036014737541168e-12  2.5585132344899786e-12  2.1978096255823772e-12  1.9071571857797262e-12  1.6887511903578407e-12  1.5552473418283731e-12  1.5234050384680413e-12  1.6143630275985480e-12  1.8658281045794904e-12  2.3582110878449276e-12  3.2526041188087604e-12  4.8331134242850301e-12  7.5377078821105251e-12  1.1949297611707625e-11  1.8706839433435978e-11  2.8300424262886123e-11  4.0757225541685044e-11  5.5314701488141026e-11  7.0275188549975021e-11  8.3262826822762145e-11  9.2072762937982855e-11  9.6894637196219800e-11  1.1055430528439576e-10  2.2591814592013660e-10  1.0865618837224957e-09  7.1755355382037800e-09  4.9702592566871712e-08  3.4504947512701655e-07  2.3833117752664522e-06  1.6318410640983560e-05  1.1016346232019316e-04  7.2604596261716147e-04  4.5842018929793211e-03  2.6880445922660010e-02  1.3971554339859343e-01  4.9970607107420256e-01  8.3243643703855741e-01  9.3792158662188474e-01  9.6276559929616223e-01  9.5595211995158069e-01  8.9485983187822293e-01  6.2492842241532032e-01  1.7284734048094588e-01  1.0103599428401982e-02  -2.8605845907688892e-04  1.5189216090991117e-05  -8.7006895677358268e-07  5.1365562665727289e-08  -3.1001032099345846e-09  1.9131926402772508e-10  -1.2013756661805693e-11  7.9072180517424719e-13  7.3200710703729194e-13  2.5366406337812560e-12  3.9089223791900325e-12  4.4643136227370944e-12  4.4779829108602271e-12  4.2030541813800969e-12  3.8194241270384160e-12  3.4523849675452984e-12  3.1791494620977737e-12  3.0292270669605193e-12  2.9894132270648307e-12  3.0163978651152284e-12  3.0540657351005301e-12  3.0501837788320838e-12  2.9673775680172580e-12  2.7848547589241735e-12  2.4889306524404897e-12  2.0517122428416186e-12  1.4098549971223927e-12  5.8746329861725279e-13  8.2925571493189718e-14  3.5497751195940794e-15  3.5075121859398023e-16  1.7718553250420625e-17  -2.8960681241366601e-20  -1.5940266496953779e-18  -1.0320891215533941e-18  -6.6247839044503891e-19  -5.5305057935501196e-19  1.0889642444405675e-11  1.0621936161466800e-11  9.8946555052027819e-12  8.9103798144255106e-12  7.9332196931388238e-12  7.2073226983415602e-12  6.8865006481388050e-12  6.9955940844466421e-12  7.4323583823903441e-12  8.0064519824110290e-12  8.5017892095755221e-12  8.7417091695462987e-12  8.6356581799083384e-12  8.1932169678393086e-12  7.5043523829084002e-12  6.6976983714685045e-12  5.8951707031032741e-12  5.1790988245105475e-12  4.5800689077469185e-12  4.0846626150054040e-12  3.6558866526783783e-12  3.2566027280784266e-12  2.8673502624635286e-12  2.4935844853493011e-12  2.1621461638077449e-12  1.9111226578684198e-12  1.7797561295575057e-12  1.8050973815823793e-12  2.0300660908248632e-12  2.5243921531767830e-12  3.4162416678189104e-12  4.9277930634807031e-12  7.4012062951367725e-12  1.1291663962386396e-11  1.7095498377007788e-11  2.5186159484326639e-11  3.5565918154276915e-11  4.7611281969613101e-11  5.9964204818149379e-11  7.0738812464956276e-11  7.8185751600115554e-11  8.2389676994607494e-11  9.2836852424446798e-11  1.7690149490595538e-10  7.8950496744253376e-10  5.0065416842371272e-09  3.3505201270792426e-08  2.2373699159349079e-07  1.4746537175502588e-06  9.5289734039683805e-06  5.9816729296759286e-05  3.5974571873203495e-04  2.0336272531476162e-03  1.0569466049138575e-02  4.8307708999153570e-02  1.8710338429408421e-01  4.9031422134082092e-01  7.3833756944440643e-01  8.2161155667736108e-01  7.9686962472079614e-01  6.2380553967491481e-01  2.8202228289417869e-01  6.9097261813130223e-02  7.9818196713023863e-03  -3.2437857205696915e-06  6.8024835493647405e-07  1.6899869640552275e-08  -4.0879020360714565e-09  4.4828613823341382e-10  -4.2869588049014475e-11  3.2251856998456879e-12  9.6194167158808151e-13  2.2243601366634208e-12  2.9953286144823039e-12  3.5798682193457015e-12  3.8543445624359679e-12  3.8570920301209758e-12  3.7065495999707098e-12  3.5216687424528315e-12  3.3939284545492682e-12  3.3747556065312169e-12  3.4701425480889210e-12  3.6447752401681363e-12  3.8358205964251403e-12  3.9726343786170208e-12  3.9964306176070904e-12  3.8739214347152578e-12  3.6007161956476998e-12  3.1928946852509472e-12  2.6677507638894177e-12  2.0198958915925281e-12  1.2267734415961059e-12  4.3940788490931110e-13  6.7802202665030487e-14  5.2783305618222007e-15  5.2588978720618313e-16  1.2651869596567005e-16  6.1912860117967302e-17  3.5394761961463216e-17  2.3149756722189756e-17  1.9661961425326431e-17  8.6181630615939439e-12  8.4467285313909928e-12  7.9862534758819581e-12  7.3795988864972353e-12  6.8100015734790786e-12  6.4405993843768591e-12  6.3632911435098507e-12  6.5730670283306204e-12  6.9744014578101399e-12  7.4159429761150428e-12  7.7410947215355963e-12  7.8371301308527154e-12  7.6661597420657377e-12  7.2682161554250048e-12  6.7376605606037003e-12  6.1841689423348413e-12  5.6941550978795254e-12  5.3062195658662767e-12  5.0071828290816465e-12  4.7471010757366625e-12  4.4654068866085621e-12  4.1176045697528157e-12  3.6931632975085040e-12  3.2196406411417585e-12  2.7538198445239577e-12  2.3654552563184187e-12  2.1213909629382941e-12  2.0770540296877907e-12  2.2796019516940267e-12  2.7836506972546774e-12  3.6772038039513904e-12  5.1116959941309288e-12  7.3247818438710098e-12  1.0637360782327617e-11  1.5400723928524811e-11  2.1874740378294672e-11  3.0045251598914766e-11  3.9440031150128641e-11  4.9054385148354862e-11  5.7507100972286830e-11  6.3524218413913523e-11  6.7137736463904548e-11  7.4811476410503201e-11  1.3116727040674113e-10  5.2743830379221807e-10  3.1590114284487992e-09  2.0212623651531638e-08  1.2850944587392368e-07  7.9916881419843257e-07  4.8138620406903633e-06  2.7754973159827389e-05  1.5085732560404664e-04  7.5938123313909315e-04  3.4511512390463924e-03  1.3907314808254693e-02  4.7291203114946508e-02  1.3167379911805974e-01  2.6323938644947181e-01  3.5086876183059368e-01  3.1872586889116777e-01  1.9026235299216512e-01  7.4239203322602809e-02  2.2034970766180856e-02  4.3002036173548841e-03  3.1136976400115247e-04  -1.8651135537054765e-06  3.2408407979564986e-07  -1.3254198209195983e-08  1.2119020179577025e-09  1.5157309807164024e-11  3.6336085308761212e-11  1.5261567562289364e-11  6.0764247847391995e-12  3.5641997932116849e-12  3.2419309310926188e-12  3.2817599312620152e-12  3.2875067801892499e-12  3.2582301668268982e-12  3.2679579749812549e-12  3.3811267161422195e-12  3.6248368763255326e-12  3.9797540504795586e-12  4.3845916703277387e-12  4.7523839494759724e-12  4.9940251361850545e-12  5.0421028554499555e-12  4.8677246730627059e-12  4.4851376162705496e-12  3.9426476350027928e-12  3.3022601260981693e-12  2.6139852228921822e-12  1.8967138778475104e-12  1.1541982494466728e-12  4.9668465845304362e-13  1.3678965373649467e-13  2.9136075881116789e-14  5.4406947559839624e-15  7.2879493684766859e-16  -1.2277445191230901e-16  -2.3459776435025266e-16  -2.3833232383481945e-16  6.6248558133367822e-12  6.5426068880424063e-12  6.3324118167637888e-12  6.0895098291957847e-12  5.9303918881267311e-12  5.9471343487088862e-12  6.1708911756808824e-12  6.5578045048783893e-12  7.0020970794002783e-12  7.3714713830111213e-12  7.5521016070519383e-12  7.4869398446164734e-12  7.1933746081255110e-12  6.7541053470287074e-12  6.2854206408243800e-12  5.8954065699818739e-12  5.6475318730638203e-12  5.5419776064200367e-12  5.5199840768901372e-12  5.4883103211188676e-12  5.3542800316621572e-12  5.0588129683567998e-12  4.5963807840957849e-12  4.0164543178869612e-12  3.4083237248437710e-12  2.8769306053507441e-12  2.5193574259873192e-12  2.4098995259503956e-12  2.5979459227997641e-12  3.1191152265172494e-12  4.0169951813474270e-12  5.3698501018878183e-12  7.3127283182938084e-12  1.0040487561733913e-11  1.3774123399352340e-11  1.8677772232853440e-11  2.4733972488457580e-11  3.1619898089851857e-11  3.8660625662680985e-11  4.4939334844288781e-11  4.9625824242217968e-11  5.2760546497640799e-11  5.8437173597865077e-11  9.3678714595422429e-11  3.2741539550719221e-10  1.8091383318707397e-09  1.0935271039285761e-08  6.5560537092186039e-08  3.8102296522475597e-07  2.1197661628205880e-06  1.1140052650710343e-05  5.4463057297653388e-05  2.4305597308331463e-04  9.7336324414664191e-04  3.3977130725074082e-03  1.0102526440945898e-02  2.4256193423802072e-02  4.5037120395654176e-02  6.0389131879183586e-02  5.4695438096278859e-02  3.4158705921215921e-02  1.5890676111347320e-02  5.6738933474704085e-03  1.5549716915234694e-03  2.7532488655355141e-04  2.2609236905172224e-05  8.7503102347006895e-07  7.1470735079918045e-08  7.3241719195764312e-09  1.3427625148562862e-09  2.6895742501131534e-10  5.5633268510969064e-11  1.2300328014737156e-11  4.2968027416083690e-12  2.9967587672490878e-12  2.8388869919998857e-12  2.8464364932945679e-12  2.9135722178046727e-12  3.0853959505084247e-12  3.4080696051317346e-12  3.8884949621114858e-12  4.4830934765764447e-12  5.1037153261952999e-12  5.6374929297097496e-12  5.9752489636277479e-12  6.0401730252966014e-12  5.8079110707296606e-12  5.3117548577907318e-12  4.6313993640437620e-12  3.8688285507172853e-12  3.1185452547289519e-12  2.4409589144113300e-12  1.8484426902944868e-12  1.3140299324501887e-12  8.2661732752207665e-13  4.4014036817727294e-13  2.0868024050483252e-13  1.0212090276090325e-13  5.7267942596810253e-14  3.8882858318833682e-14  3.3839974355544920e-14  5.0585958076489208e-12  5.0520047647879305e-12  5.0574540927312097e-12  5.1380923608857285e-12  5.3628229217933011e-12  5.7682448872806696e-12  6.3309692617364913e-12  6.9625559592927028e-12  7.5306767650654196e-12  7.9000089548025898e-12  7.9783045347474647e-12  7.7502176054831172e-12  7.2854624099956111e-12  6.7175317471549056e-12  6.2004608291415977e-12  5.8590628234205405e-12  5.7497179781718660e-12  5.8443772810230634e-12  6.0423113614329058e-12  6.2050841517958620e-12  6.2027504407750975e-12  5.9556922148808460e-12  5.4585046982657796e-12  4.7795653765217447e-12  4.0392708161892991e-12  3.3770337612821433e-12  2.9191475141730914e-12  2.7568751703665542e-12  2.9392414080338462e-12  3.4805953515092533e-12  4.3799690505498492e-12  5.6468272538761361e-12  7.3249049584111760e-12  9.5025518943000543e-12  1.2296600736421261e-11  1.5801479373549401e-11  2.0009937621594784e-11  2.4734838479797532e-11  2.9581603107027275e-11  3.4021314903335020e-11  3.7600255323601660e-11  4.0417261745817612e-11  4.4935954956790062e-11  6.6190491345372436e-11  1.9307456584624651e-10  9.4831509607487660e-10  5.3272221693624006e-09  2.9830310998113359e-08  1.6078653093110336e-07  8.2108724059522397e-07  3.9172962744402831e-06  1.7189803218163274e-05  6.8299424791758536e-05  2.4062207981778941e-04  7.3644804168514720e-04  1.8947931232938817e-03  3.9722760020475395e-03  6.5375979635136161e-03  8.1789836385461143e-03  7.6774702930095104e-03  5.4206588008810638e-03  2.9330741686395862e-03  1.2521188033635475e-03  4.2469258308182225e-04  1.1151462392396657e-04  2.0538059997996729e-05  2.4638304542116453e-06  2.4833817490326609e-07  2.9681723475812617e-08  4.0599055295586144e-09  6.1807732390504280e-10  1.0008831818812946e-10  1.8188037483826886e-11  4.9654119587182198e-12  2.8670138612489589e-12  2.5608256633404975e-12  2.5595970621604436e-12  2.6845559678297134e-12  2.9667124577419285e-12  3.4423646990816859e-12  4.1037340297025939e-12  4.8868596317139724e-12  5.6795890606474990e-12  6.3454560063734638e-12  6.7571036815560652e-12  6.8295692965890456e-12  6.5430981812751771e-12  5.9482375422999590e-12  5.1517092041894218e-12  4.2876201628106018e-12  3.4826578505756377e-12  2.8249722045599546e-12  2.3447828565363203e-12  2.0120566924716482e-12  1.7535173903289344e-12  1.4938608498337827e-12  1.2135405575202483e-12  9.5434302683686389e-13  7.5859299684599679e-13  6.4125631719893975e-13  6.0262205776032314e-13  3.9518276267199145e-12  4.0043224836699666e-12  4.1812932559535910e-12  4.5286801605115504e-12  5.0870015986193440e-12  5.8546568258546708e-12  6.7635962388719588e-12  7.6801834850076459e-12  8.4344938615341028e-12  8.8698590388203392e-12  8.8953107944022657e-12  8.5206879864864503e-12  7.8596103008532954e-12  7.0975739024284628e-12  6.4357836654605468e-12  6.0300292614054957e-12  5.9448113260243569e-12  6.1368981037581791e-12  6.4726637840141645e-12  6.7730428274958374e-12  