<?xml version="1.0"?>
<VTKFile type="UnstructuredGrid"  version="0.1"  >
<UnstructuredGrid>
<Piece  NumberOfPoints="20201" NumberOfCells="40000">
<Points>
<DataArray  type="Float64"  NumberOfComponents="3"  format="ascii">0 0 0  2 0 0  4 0 0  6 0 0  8 0 0  10 0 0  12 0 0  14 0 0  16 0 0  18 0 0  20 0 0  22 0 0  24 0 0  26 0 0  28 0 0  30 0 0  32 0 0  34 0 0  36 0 0  38 0 0  40 0 0  42 0 0  44 0 0  46 0 0  48 0 0  50 0 0  52 0 0  54 0 0  56 0 0  58 0 0  60 0 0  62 0 0  64 0 0  66 0 0  68 0 0  70 0 0  72 0 0  74 0 0  76 0 0  78 0 0  80 0 0  82 0 0  84 0 0  86 0 0  88 0 0  90 0 0  92 0 0  94 0 0  96 0 0  98 0 0  100 0 0  102 0 0  104 0 0  106 0 0  108 0 0  110 0 0  112 0 0  114 0 0  116 0 0  118 0 0  120 0 0  122 0 0  124 0 0  126 0 0  128 0 0  130 0 0  132 0 0  134 0 0  136 0 0  138 0 0  140 0 0  142 0 0  144 0 0  146 0 0  148 0 0  150 0 0  152 0 0  154 0 0  156 0 0  158 0 0  160 0 0  162 0 0  164 0 0  166 0 0  168 0 0  170 0 0  172 0 0  174 0 0  176 0 0  178 0 0  180 0 0  182 0 0  184 0 0  186 0 0  188 0 0  190 0 0  192 0 0  194 0 0  196 0 0  198 0 0  200 0 0  0 2 0  2 2 0  4 2 0  6 2 0  8 2 0  10 2 0  12 2 0  14 2 0  16 2 0  18 2 0  20 2 0  22 2 0  24 2 0  26 2 0  28 2 0  30 2 0  32 2 0  34 2 0  36 2 0  38 2 0  40 2 0  42 2 0  44 2 0  46 2 0  48 2 0  50 2 0  52 2 0  54 2 0  56 2 0  58 2 0  60 2 0  62 2 0  64 2 0  66 2 0  68 2 0  70 2 0  72 2 0  74 2 0  76 2 0  78 2 0  80 2 0  82 2 0  84 2 0  86 2 0  88 2 0  90 2 0  92 2 0  94 2 0  96 2 0  98 2 0  100 2 0  102 2 0  104 2 0  106 2 0  108 2 0  110 2 0  112 2 0  114 2 0  116 2 0  118 2 0  120 2 0  122 2 0  124 2 0  126 2 0  128 2 0  130 2 0  132 2 0  134 2 0  136 2 0  138 2 0  140 2 0  142 2 0  144 2 0  146 2 0  148 2 0  150 2 0  152 2 0  154 2 0  156 2 0  158 2 0  160 2 0  162 2 0  164 2 0  166 2 0  168 2 0  170 2 0  172 2 0  174 2 0  176 2 0  178 2 0  180 2 0  182 2 0  184 2 0  186 2 0  188 2 0  190 2 0  192 2 0  194 2 0  196 2 0  198 2 0  200 2 0  0 4 0  2 4 0  4 4 0  6 4 0  8 4 0  10 4 0  12 4 0  14 4 0  16 4 0  18 4 0  20 4 0  22 4 0  24 4 0  26 4 0  28 4 0  30 4 0  32 4 0  34 4 0  36 4 0  38 4 0  40 4 0  42 4 0  44 4 0  46 4 0  48 4 0  50 4 0  52 4 0  54 4 0  56 4 0  58 4 0  60 4 0  62 4 0  64 4 0  66 4 0  68 4 0  70 4 0  72 4 0  74 4 0  76 4 0  78 4 0  80 4 0  82 4 0  84 4 0  86 4 0  88 4 0  90 4 0  92 4 0  94 4 0  96 4 0  98 4 0  100 4 0  102 4 0  104 4 0  106 4 0  108 4 0  110 4 0  112 4 0  114 4 0  116 4 0  118 4 0  120 4 0  122 4 0  124 4 0  126 4 0  128 4 0  130 4 0  132 4 0  134 4 0  136 4 0  138 4 0  140 4 0  142 4 0  144 4 0  146 4 0  148 4 0  150 4 0  152 4 0  154 4 0  156 4 0  158 4 0  160 4 0  162 4 0  164 4 0  166 4 0  168 4 0  170 4 0  172 4 0  174 4 0  176 4 0  178 4 0  180 4 0  182 4 0  184 4 0  186 4 0  188 4 0  190 4 0  192 4 0  194 4 0  196 4 0  198 4 0  200 4 0  0 6 0  2 6 0  4 6 0  6 6 0  8 6 0  10 6 0  12 6 0  14 6 0  16 6 0  18 6 0  20 6 0  22 6 0  24 6 0  26 6 0  28 6 0  30 6 0  32 6 0  34 6 0  36 6 0  38 6 0  40 6 0  42 6 0  44 6 0  46 6 0  48 6 0  50 6 0  52 6 0  54 6 0  56 6 0  58 6 0  60 6 0  62 6 0  64 6 0  66 6 0  68 6 0  70 6 0  72 6 0  74 6 0  76 6 0  78 6 0  80 6 0  82 6 0  84 6 0  86 6 0  88 6 0  90 6 0  92 6 0  94 6 0  96 6 0  98 6 0  100 6 0  102 6 0  104 6 0  106 6 0  108 6 0  110 6 0  112 6 0  114 6 0  116 6 0  118 6 0  120 6 0  122 6 0  124 6 0  126 6 0  128 6 0  130 6 0  132 6 0  134 6 0  136 6 0  138 6 0  140 6 0  142 6 0  144 6 0  146 6 0  148 6 0  150 6 0  152 6 0  154 6 0  156 6 0  158 6 0  160 6 0  162 6 0  164 6 0  166 6 0  168 6 0  170 6 0  172 6 0  174 6 0  176 6 0  178 6 0  180 6 0  182 6 0  184 6 0  186 6 0  188 6 0  190 6 0  192 6 0  194 6 0  196 6 0  198 6 0  200 6 0  0 8 0  2 8 0  4 8 0  6 8 0  8 8 0  10 8 0  12 8 0  14 8 0  16 8 0  18 8 0  20 8 0  22 8 0  24 8 0  26 8 0  28 8 0  30 8 0  32 8 0  34 8 0  36 8 0  38 8 0  40 8 0  42 8 0  44 8 0  46 8 0  48 8 0  50 8 0  52 8 0  54 8 0  56 8 0  58 8 0  60 8 0  62 8 0  64 8 0  66 8 0  68 8 0  70 8 0  72 8 0  74 8 0  76 8 0  78 8 0  80 8 0  82 8 0  84 8 0  86 8 0  88 8 0  90 8 0  92 8 0  94 8 0  96 8 0  98 8 0  100 8 0  102 8 0  104 8 0  106 8 0  108 8 0  110 8 0  112 8 0  114 8 0  116 8 0  118 8 0  120 8 0  122 8 0  124 8 0  126 8 0  128 8 0  130 8 0  132 8 0  134 8 0  136 8 0  138 8 0  140 8 0  142 8 0  144 8 0  146 8 0  148 8 0  150 8 0  152 8 0  154 8 0  156 8 0  158 8 0  160 8 0  162 8 0  164 8 0  166 8 0  168 8 0  170 8 0  172 8 0  174 8 0  176 8 0  178 8 0  180 8 0  182 8 0  184 8 0  186 8 0  188 8 0  190 8 0  192 8 0  194 8 0  196 8 0  198 8 0  200 8 0  0 10 0  2 10 0  4 10 0  6 10 0  8 10 0  10 10 0  12 10 0  14 10 0  16 10 0  18 10 0  20 10 0  22 10 0  24 10 0  26 10 0  28 10 0  30 10 0  32 10 0  34 10 0  36 10 0  38 10 0  40 10 0  42 10 0  44 10 0  46 10 0  48 10 0  50 10 0  52 10 0  54 10 0  56 10 0  58 10 0  60 10 0  62 10 0  64 10 0  66 10 0  68 10 0  70 10 0  72 10 0  74 10 0  76 10 0  78 10 0  80 10 0  82 10 0  84 10 0  86 10 0  88 10 0  90 10 0  92 10 0  94 10 0  96 10 0  98 10 0  100 10 0  102 10 0  104 10 0  106 10 0  108 10 0  110 10 0  112 10 0  114 10 0  116 10 0  118 10 0  120 10 0  122 10 0  124 10 0  126 10 0  128 10 0  130 10 0  132 10 0  134 10 0  136 10 0  138 10 0  140 10 0  142 10 0  144 10 0  146 10 0  148 10 0  150 10 0  152 10 0  154 10 0  156 10 0  158 10 0  160 10 0  162 10 0  164 10 0  166 10 0  168 10 0  170 10 0  172 10 0  174 10 0  176 10 0  178 10 0  180 10 0  182 10 0  184 10 0  186 10 0  188 10 0  190 10 0  192 10 0  194 10 0  196 10 0  198 10 0  200 10 0  0 12 0  2 12 0  4 12 0  6 12 0  8 12 0  10 12 0  12 12 0  14 12 0  16 12 0  18 12 0  20 12 0  22 12 0  24 12 0  26 12 0  28 12 0  30 12 0  32 12 0  34 12 0  36 12 0  38 12 0  40 12 0  42 12 0  44 12 0  46 12 0  48 12 0  50 12 0  52 12 0  54 12 0  56 12 0  58 12 0  60 12 0  62 12 0  64 12 0  66 12 0  68 12 0  70 12 0  72 12 0  74 12 0  76 12 0  78 12 0  80 12 0  82 12 0  84 12 0  86 12 0  88 12 0  90 12 0  92 12 0  94 12 0  96 12 0  98 12 0  100 12 0  102 12 0  104 12 0  106 12 0  108 12 0  110 12 0  112 12 0  114 12 0  116 12 0  118 12 0  120 12 0  122 12 0  124 12 0  126 12 0  128 12 0  130 12 0  132 12 0  134 12 0  136 12 0  138 12 0  140 12 0  142 12 0  144 12 0  146 12 0  148 12 0  150 12 0  152 12 0  154 12 0  156 12 0  158 12 0  160 12 0  162 12 0  164 12 0  166 12 0  168 12 0  170 12 0  172 12 0  174 12 0  176 12 0  178 12 0  180 12 0  182 12 0  184 12 0  186 12 0  188 12 0  190 12 0  192 12 0  194 12 0  196 12 0  198 12 0  200 12 0  0 14 0  2 14 0  4 14 0  6 14 0  8 14 0  10 14 0  12 14 0  14 14 0  16 14 0  18 14 0  20 14 0  22 14 0  24 14 0  26 14 0  28 14 0  30 14 0  32 14 0  34 14 0  36 14 0  38 14 0  40 14 0  42 14 0  44 14 0  46 14 0  48 14 0  50 14 0  52 14 0  54 14 0  56 14 0  58 14 0  60 14 0  62 14 0  64 14 0  66 14 0  68 14 0  70 14 0  72 14 0  74 14 0  76 14 0  78 14 0  80 14 0  82 14 0  84 14 0  86 14 0  88 14 0  90 14 0  92 14 0  94 14 0  96 14 0  98 14 0  100 14 0  102 14 0  104 14 0  106 14 0  108 14 0  110 14 0  112 14 0  114 14 0  116 14 0  118 14 0  120 14 0  122 14 0  124 14 0  126 14 0  128 14 0  130 14 0  132 14 0  134 14 0  136 14 0  138 14 0  140 14 0  142 14 0  144 14 0  146 14 0  148 14 0  150 14 0  152 14 0  154 14 0  156 14 0  158 14 0  160 14 0  162 14 0  164 14 0  166 14 0  168 14 0  170 14 0  172 14 0  174 14 0  176 14 0  178 14 0  180 14 0  182 14 0  184 14 0  186 14 0  188 14 0  190 14 0  192 14 0  194 14 0  196 14 0  198 14 0  200 14 0  0 16 0  2 16 0  4 16 0  6 16 0  8 16 0  10 16 0  12 16 0  14 16 0  16 16 0  18 16 0  20 16 0  22 16 0  24 16 0  26 16 0  28 16 0  30 16 0  32 16 0  34 16 0  36 16 0  38 16 0  40 16 0  42 16 0  44 16 0  46 16 0  48 16 0  50 16 0  52 16 0  54 16 0  56 16 0  58 16 0  60 16 0  62 16 0  64 16 0  66 16 0  68 16 0  70 16 0  72 16 0  74 16 0  76 16 0  78 16 0  80 16 0  82 16 0  84 16 0  86 16 0  88 16 0  90 16 0  92 16 0  94 16 0  96 16 0  98 16 0  100 16 0  102 16 0  104 16 0  106 16 0  108 16 0  110 16 0  112 16 0  114 16 0  116 16 0  118 16 0  120 16 0  122 16 0  124 16 0  126 16 0  128 16 0  130 16 0  132 16 0  134 16 0  136 16 0  138 16 0  140 16 0  142 16 0  144 16 0  146 16 0  148 16 0  150 16 0  152 16 0  154 16 0  156 16 0  158 16 0  160 16 0  162 16 0  164 16 0  166 16 0  168 16 0  170 16 0  172 16 0  174 16 0  176 16 0  178 16 0  180 16 0  182 16 0  184 16 0  186 16 0  188 16 0  190 16 0  192 16 0  194 16 0  196 16 0  198 16 0  200 16 0  0 18 0  2 18 0  4 18 0  6 18 0  8 18 0  10 18 0  12 18 0  14 18 0  16 18 0  18 18 0  20 18 0  22 18 0  24 18 0  26 18 0  28 18 0  30 18 0  32 18 0  34 18 0  36 18 0  38 18 0  40 18 0  42 18 0  44 18 0  46 18 0  48 18 0  50 18 0  52 18 0  54 18 0  56 18 0  58 18 0  60 18 0  62 18 0  64 18 0  66 18 0  68 18 0  70 18 0  72 18 0  74 18 0  76 18 0  78 18 0  80 18 0  82 18 0  84 18 0  86 18 0  88 18 0  90 18 0  92 18 0  94 18 0  96 18 0  98 18 0  100 18 0  102 18 0  104 18 0  106 18 0  108 18 0  110 18 0  112 18 0  114 18 0  116 18 0  118 18 0  120 18 0  122 18 0  124 18 0  126 18 0  128 18 0  130 18 0  132 18 0  134 18 0  136 18 0  138 18 0  140 18 0  142 18 0  144 18 0  146 18 0  148 18 0  150 18 0  152 18 0  154 18 0  156 18 0  158 18 0  160 18 0  162 18 0  164 18 0  166 18 0  168 18 0  170 18 0  172 18 0  174 18 0  176 18 0  178 18 0  180 18 0  182 18 0  184 18 0  186 18 0  188 18 0  190 18 0  192 18 0  194 18 0  196 18 0  198 18 0  200 18 0  0 20 0  2 20 0  4 20 0  6 20 0  8 20 0  10 20 0  12 20 0  14 20 0  16 20 0  18 20 0  20 20 0  22 20 0  24 20 0  26 20 0  28 20 0  30 20 0  32 20 0  34 20 0  36 20 0  38 20 0  40 20 0  42 20 0  44 20 0  46 20 0  48 20 0  50 20 0  52 20 0  54 20 0  56 20 0  58 20 0  60 20 0  62 20 0  64 20 0  66 20 0  68 20 0  70 20 0  72 20 0  74 20 0  76 20 0  78 20 0  80 20 0  82 20 0  84 20 0  86 20 0  88 20 0  90 20 0  92 20 0  94 20 0  96 20 0  98 20 0  100 20 0  102 20 0  104 20 0  106 20 0  108 20 0  110 20 0  112 20 0  114 20 0  116 20 0  118 20 0  120 20 0  122 20 0  124 20 0  126 20 0  128 20 0  130 20 0  132 20 0  134 20 0  136 20 0  138 20 0  140 20 0  142 20 0  144 20 0  146 20 0  148 20 0  150 20 0  152 20 0  154 20 0  156 20 0
[...]
<PointData  Scalars="f_271-5"> 
<DataArray  type="Float64"  Name="f_271-5"  format="ascii">6.3645212299435467e-12  6.1825718473023797e-12  5.6865552400950563e-12  5.0098620203129161e-12  4.3273435567621022e-12  3.8026597802082883e-12  3.5425104375968854e-12  3.5706902921697025e-12  3.8274959564883668e-12  4.1926431028044205e-12  4.5236592802352747e-12  4.6974299078253322e-12  4.6417564050648258e-12  4.3477601960557146e-12  3.8616921141469908e-12  3.2625025632220060e-12  2.6355001019846433e-12  2.0512832439333972e-12  1.5546887899845584e-12  1.1637662716520544e-12  8.7576594135570481e-13  6.7614636317478977e-13  5.4705417806302816e-13  4.7295933483194969e-13  4.4275688621718751e-13  4.4934080483810023e-13  4.8897394234753339e-13  5.6328349083309408e-13  6.8621961323634247e-13  8.9697607293760219e-13  1.2779058771605612e-12  1.9737025943204303e-12  3.2038854665185785e-12  5.2547482402590991e-12  8.4320733097458613e-12  1.2959568086901882e-11  1.8829947980659968e-11  2.5657719105351238e-11  3.2627753444888950e-11  3.8663810903477989e-11  4.3093702369475046e-11  4.8597198882288041e-11  7.9902461609363635e-11  3.1683247359306126e-10  2.0584460318307388e-09  1.4743129187630348e-08  1.0731144162611372e-07  7.8632764971652933e-07  5.8015790090816227e-06  4.3174384115732437e-05  3.2485889133052840e-04  2.4768202124241532e-03  1.9087839117787171e-02  1.3979862052868527e-01  5.8571823816411617e-01  9.0909355123278157e-01  9.8048484080403919e-01  9.9510357980243780e-01  9.9795804003505550e-01  9.9602793888783048e-01  9.8066748331154374e-01  8.7988740748859362e-01  4.0306363537194723e-01  1.8943225446741256e-02  -8.1391597051390190e-04  4.5641863317547474e-05  -2.6396669780357975e-06  1.5361886939682845e-07  -8.9559096806103110e-09  5.2236768002634108e-10  -3.0440063210427702e-11  1.7671645993424637e-12  -6.8968205143367275e-14  4.6814403355174644e-13  1.4315815126102942e-12  1.9788875228952051e-12  2.0683576145268204e-12  1.9202957459983734e-12  1.6711137880054129e-12  1.4004146534044649e-12  1.1560973992327712e-12  9.6335697424652441e-13  8.2909415276057345e-13  7.4682198507755743e-13  7.0235059034352117e-13  6.7877480850149242e-13  6.5916618747283120e-13  6.2570405880603612e-13  5.5421318671487458e-13  4.0605659433828479e-13  1.6617187586079173e-13  1.5208617682117002e-14  2.3744885448767952e-18  8.6950969372472020e-18  -2.8246350479782294e-19  2.6484206952677813e-20  -2.4348022024533042e-21  2.9850049481003274e-22  -4.7629275303584889e-23  -1.0199038406882607e-23  -1.2901944656289528e-23  6.1909668845384394e-12  6.0155372994918450e-12  5.5372227933413622e-12  4.8844676179949547e-12  4.2257058731200243e-12  3.7186924625754734e-12  3.4664074626323090e-12  3.4920137726257630e-12  3.7382305302851568e-12  4.0893720990868160e-12  4.4083128852415940e-12  4.5765015706588748e-12  4.5243655230600667e-12  4.2432728663716859e-12  3.7776493373255774e-12  3.2033535038661049e-12  2.6022610483418438e-12  2.0419391941057137e-12  1.5650259918415351e-12  1.1883459019622115e-12  9.0883667025511257e-13  7.1238085998726515e-13  5.8206173222704564e-13  5.0357827081261421e-13  4.6716635957386690e-13  4.6704032553113385e-13  5.0065104976122803e-13  5.7053253855677477e-13  6.9101181081350347e-13  9.0074143533368110e-13  1.2800944693906611e-12  1.9697706486826187e-12  3.1828517950758933e-12  5.1968619670876532e-12  8.3077380661019055e-12  1.2731249757957313e-11  1.8458743751634293e-11  2.5114814548873658e-11  3.1907890024708654e-11  3.7793487890437139e-11  4.2116068656673741e-11  4.7441478979998256e-11  7.7453288507473535e-11  3.0386733342927917e-10  1.9626346441454134e-09  1.3995123338638426e-08  1.0137754805835083e-07  7.3856828712660904e-07  5.4102823875475402e-06  3.9893923980823499e-05  2.9648720531615309e-04  2.2214270053873596e-03  1.6642706999131687e-02  1.1846334392990536e-01  5.2851240523561416e-01  8.8945951021518987e-01  9.7525346052578643e-01  9.9325510989311561e-01  9.9692520750307456e-01  9.9475185586317405e-01  9.7739400462227288e-01  8.6678674264904232e-01  3.7612145849770384e-01  1.6673941991712578e-02  -7.0345725917535153e-04  3.9026701639663784e-05  -2.2370679587227086e-06  1.2916216819132415e-07  -7.4826737823136064e-09  4.3498701904674158e-10  -2.5392881035938340e-11  1.4885453643095702e-12  -4.5210744511995784e-14  5.1626289634930018e-13  1.4397152264916768e-12  1.9412640225002061e-12  2.0203131588924053e-12  1.8791753460311860e-12  1.6442473598779884e-12  1.3907428996841774e-12  1.1641589519476062e-12  9.8802192485691085e-13  8.6794508262167734e-13  7.9645811906468280e-13  7.5872092299136783e-13  7.3760627190683342e-13  7.1653276559489036e-13  6.7878015800833784e-13  6.0225614730892721e-13  4.5084148486989445e-13  2.0193504631335402e-13  2.3033857500140071e-14  2.3284804654405898e-16  1.3065278342008648e-17  2.6381232214659608e-19  -4.4216454993867362e-20  6.4236076999053645e-21  -1.2036616126722938e-21  5.6678296259569222e-23  6.0226030303181812e-23  7.9667536783432196e-23  5.7013557068670630e-12  5.5444546098844421e-12  5.1165538905839917e-12  4.5323000602385339e-12  3.9421534696187576e-12  3.4871945792776353e-12  3.2596852153898006e-12  3.2805945686065668e-12  3.4989794498202225e-12  3.8116920376685743e-12  4.0964590325783714e-12  4.2476622526870592e-12  4.2034832989686383e-12  3.9565175723629987e-12  3.5465969512167699e-12  3.0412747252711342e-12  2.5129157181550753e-12  2.0204440135979653e-12  1.5999957052862140e-12  1.2645420073811502e-12  1.0097672066701107e-12  8.2250506473317578e-13  6.8841668178311913e-13  5.9678013376102669e-13  5.4184838072118575e-13  5.2183586344449482e-13  5.3777668640816255e-13  5.9488453038841766e-13  7.0852266888500959e-13  9.1563378967983899e-13  1.2906851582024246e-12  1.9626946457548879e-12  3.1261372205806578e-12  5.0334017173581979e-12  7.9524008236134397e-12  1.2076496326404470e-11  1.7393448235564066e-11  2.3556878766552970e-11  2.9842497360251817e-11  3.5296512281357103e-11  3.9312246302347537e-11  4.4142439627087944e-11  7.0594134660795100e-11  2.6818544021307907e-10  1.7013200753113680e-09  1.1971766054268322e-08  8.5479189811079513e-08  6.1209058213774594e-07  4.3890839629438328e-06  3.1493547391749846e-05  2.2573861028672140e-04  1.6078228405640269e-03  1.1198939007513056e-02  7.2973082464339617e-02  3.6614644526235235e-01  8.0606050012395902e-01  9.5189196556658262e-01  9.8425035140451211e-01  9.9153393708833537e-01  9.8817499679254750e-01  9.6181484802627215e-01  8.1016510250271245e-01  2.9492915982056500e-01  1.2126858468277225e-02  -4.6720274910052966e-04  2.4863610888959399e-05  -1.3680959467000729e-06  7.5110679758437765e-08  -4.0697968092954074e-09  2.1560750093841456e-10  -1.0995299748625405e-11  5.2194583198692516e-13  6.2880405420936913e-14  6.5255239430390188e-13  1.4450051748831968e-12  1.8308768149236422e-12  1.8856255191793584e-12  1.7651302686082885e-12  1.5707515815126697e-12  1.3662189633576474e-12  1.1904349870873292e-12  1.0621426229595327e-12  9.8312607545909516e-13  9.4290140573128582e-13  9.2458370402755210e-13  9.1029738595345778e-13  8.8443371101998236e-13  8.3346440070584525e-13  7.4135006761206232e-13  5.8061164099753604e-13  3.1868949764456594e-13  6.4112771042747859e-14  2.4705428171139654e-15  9.6016530505173472e-17  -1.0318768644700535e-18  7.3085212439472583e-19  2.0160433974844100e-20  2.2616212424812982e-20  5.6638852734713314e-21  1.7061082751820455e-21  8.1014699179936905e-22  4.9802945257080236e-12  4.8511182891809896e-12  4.4989784849696838e-12  4.0186683840728204e-12  3.5345649103772969e-12  3.1631380480141767e-12  2.9801758874728937e-12  3.0021564388122636e-12  3.1859425024495030e-12  3.4455022177338753e-12  3.6797046032599257e-12  3.8021376833863323e-12  3.7634438545092840e-12  3.5596461072003571e-12  3.2255210502338077e-12  2.8176960010626703e-12  2.3950982990934686e-12  2.0036781988926608e-12  1.6691037150080089e-12  1.3974621838159531e-12  1.1814473189672844e-12  1.0085315488425595e-12  8.6796309968175765e-13  7.5462480235979050e-13  6.6939728538753975e-13  6.1722275984925090e-13  6.0511400093652367e-13  6.4259346376296835e-13  7.4645859743814594e-13  9.5056684358053708e-13  1.3197093059143123e-12  1.9644457733349143e-12  3.0505201222095966e-12  4.7921584002420238e-12  7.4153253436741086e-12  1.1080429933161596e-11  1.5770858265654432e-11  2.1184721308709019e-11  2.6699251260815782e-11  3.1497364923544548e-11  3.5049719618115815e-11  3.9171389852300782e-11  6.0630769284038454e-11  2.1813228115625694e-10  1.3413640385171249e-09  9.2301695129000488e-09  6.4344570654332224e-08  4.4781111455612663e-07  3.1005714370156490e-06  2.1285277935962043e-05  1.4403229735192088e-04  9.5006725313607219e-04  5.9852901186285782e-03  3.4748540093152314e-02  1.7721114437135244e-01  5.7419758282884503e-01  8.6518080336624736e-01  9.4835568095874867e-01  9.6771298420415197e-01  9.5983359705346860e-01  9.0037890018287847e-01  6.3271901873794856e-01  1.7350790478398231e-01  9.3730975446358524e-03  -2.8092370832322254e-04  1.4946948632616596e-05  -8.5352282552701857e-07  4.9997240192854372e-08  -2.9795124341008869e-09  1.8053665701721320e-10  -1.1075526048425878e-11  6.7943702666446913e-13  1.9547379704687156e-13  8.6841190190891113e-13  1.4172108039714224e-12  1.6611682401778370e-12  1.6909044445964495e-12  1.6031976478242788e-12  1.4692734852362888e-12  1.3380894052318096e-12  1.2392863740671864e-12  1.1843229483680228e-12  1.1687608178827888e-12  1.1769725208181491e-12  1.1884459915859454e-12  1.1838528636510512e-12  1.1490102062510238e-12  1.0753578674288568e-12  9.5615723753275548e-13  7.7842611386419382e-13  5.1709468695172148e-13  1.9662355484045287e-13  2.3717887846819731e-14  8.8531049718083101e-16  8.9434511841637477e-17  2.1327543219026022e-18  -2.8730559644025596e-19  -4.4159566422104625e-19  -2.2614931528781806e-19  -1.2077708282031240e-19  -9.2928845930209192e-20  4.1433802913954801e-12  4.0472603069786967e-12  3.7860489232922987e-12  3.4323365190317024e-12  3.0809208400143829e-12  2.8195982866759533e-12  2.7037556311774624e-12  2.7423060103343147e-12  2.8983002334005305e-12  3.1030058241211761e-12  3.2783941890177190e-12  3.3605618400064205e-12  3.3164900924613120e-12  3.1491760635341610e-12  2.8907487951412276e-12  2.5876739104468398e-12  2.2844620831929058e-12  2.0116651182229133e-12  1.7812210859654047e-12  1.5890104497524510e-12  1.4221173284600017e-12  1.2673045545901236e-12  1.1175554655564796e-12  9.7484349441826309e-13  8.4903388400125299e-13  7.5440221151649140e-13  7.0617115714532302e-13  7.1950294284598226e-13  8.1265811154236559e-13  1.0148418003972789e-12  1.3778040288643569e-12  1.9884009396389530e-12  2.9766694738604898e-12  4.5105878971206312e-12  6.7664056844016460e-12  9.8666102537465856e-12  1.3791366335645297e-11  1.8293656619154750e-11  2.2872835592821726e-11  2.6875822252983045e-11  2.9871962451476255e-11  3.3206670339204976e-11  4.9278879578199800e-11  1.6401159422515341e-10  9.6273811591706031e-10  6.4166668099831321e-09  4.3264686303218773e-08  2.8951152837536476e-07  1.9110443408067738e-06  1.2364165597288658e-05  7.7647768407817028e-05  4.6644502091623973e-04  2.6262651286931473e-03  1.3584801917101989e-02  6.1454731212637573e-02  2.3336943198166710e-01  5.5962189673728124e-01  7.7888477105081055e-01  8.4491717136704003e-01  8.1692720432028887e-01  6.4627113730338204e-01  2.9505204108796335e-01  7.1095789620032088e-02  7.6690899121029015e-03  -3.5828391188073847e-05  2.2108081181724403e-06  -9.0068682759565647e-08  3.5076463150765231e-09  -1.0060048756158479e-10  -1.8544583127822584e-12  1.9343291201518932e-13  4.7223962957202425e-13  1.0274933705671634e-12  1.2012515046427289e-12  1.3621058484995309e-12  1.4626795110030358e-12  1.4738108939723628e-12  1.4263067224862427e-12  1.3631036877018262e-12  1.3187126344818325e-12  1.3126232120113273e-12  1.3473938811770296e-12  1.4103500278090286e-12  1.4786796751332180e-12  1.5266126914692666e-12  1.5325559562565891e-12  1.4840060770844489e-12  1.3786674161429300e-12  1.2211393820079047e-12  1.0156191860575166e-12  7.5763346142288044e-13  4.4080189990232290e-13  1.4269445320329591e-13  1.9060234792948541e-14  1.2687955509585788e-15  1.2803200860665302e-16  3.2679262454350141e-17  1.6007369547427339e-17  8.5073856491202058e-18  5.1150153212287156e-18  4.1851460425437371e-18  3.3084749959035427e-12  3.2467243108837135e-12  3.0809158978156424e-12  2.8626824304488284e-12  2.6583043124839586e-12  2.5268138513301396e-12  2.5013805977619230e-12  2.5799102667718355e-12  2.7273462245788479e-12  2.8883163267755442e-12  3.0055530556095891e-12  3.0377413934008039e-12  2.9707758173579057e-12  2.8189589811384134e-12  2.6165747886447141e-12  2.4038321088586668e-12  2.2128419872765151e-12  2.0585501461247473e-12  1.9370773404338882e-12  1.8309773418166715e-12  1.7186198840007717e-12  1.5838848076055481e-12  1.4227694699648198e-12  1.2450791504535253e-12  1.0714300225534324e-12  9.2753494919149115e-13  8.3856408265977814e-13  8.2615051086468186e-13  9.0965488171877014e-13  1.1120499173317114e-12  1.4694628259565858e-12  2.0418832526321732e-12  2.9204886890581880e-12  4.2245751065122772e-12  6.0796687736952205e-12  8.5712645853747608e-12  1.1679262880619064e-11  1.5216111556052580e-11  1.8808934640054696e-11  2.1975344668529509e-11  2.4394586837888388e-11  2.6990468949737156e-11  3.8181789519057278e-11  1.1467911684878461e-10  6.3024326906769205e-10  4.0256518720575319e-09  2.6011821057196552e-08  1.6568880590235000e-07  1.0310034968606972e-06  6.2102122469432457e-06  3.5773232357853625e-05  1.9401580347678510e-04  9.7411929824560862e-04  4.4081994273120293e-03  1.7692416369556846e-02  5.9387520240823007e-02  1.6212071204744880e-01  3.0876232312476842e-01  3.9567438270577510e-01  3.5250429406540584e-01  2.0779459420984051e-01  7.9650271355092658e-02  2.3161066017240450e-02  4.3380739610675524e-03  2.7426719059876742e-04  -3.0658967310490079e-06  3.4824806513607625e-07  -1.8499159390778674e-08  1.4237203730245600e-09  -4.6185952666317759e-11  2.5379524278861112e-11  1.0519140702599849e-11  3.9973499839369653e-12  1.7664795538251912e-12  1.3198959125920456e-12  1.2749869522974540e-12  1.2724788027787666e-12  1.2651559437626439e-12  1.2718532953338061e-12  1.3151399195548459e-12  1.4049627847678950e-12  1.5343985612795709e-12  1.6812484335454632e-12  1.8139852839426433e-12  1.9002835476686311e-12  1.9156058413679880e-12  1.8492264034616116e-12  1.7058154603864862e-12  1.5020173441362457e-12  1.2589077668609526e-12  9.9273051466208901e-13  7.0903628617682934e-13  4.1301115369139484e-13  1.6249326137565191e-13  3.9705109923662440e-14  7.2938297937002732e-15  1.0831098799729131e-15  3.5317602226014692e-17  -9.4897011903823986e-17  -8.8337921859607069e-17  -8.0515435510601212e-17  2.5700623413632479e-12  2.5405882107232754e-12  2.4654271977282554e-12  2.3791465830893321e-12  2.3240488223231463e-12  2.3335641927544589e-12  2.4189129589590376e-12  2.5639022358475986e-12  2.7296437084970361e-12  2.8674347892033995e-12  2.9351657257992122e-12  2.9113309895969918e-12  2.8015848594804731e-12  2.6356037357857614e-12  2.4557170567528415e-12  2.3017772572660417e-12  2.1978430456222270e-12  2.1451998424498610e-12  2.1236970333890483e-12  2.1004023119331853e-12  2.0421588252617481e-12  1.9275235360542497e-12  1.7541181927103830e-12  1.5394103299447950e-12  1.3155156477154836e-12  1.1206710995912701e-12  9.9081258270047208e-13  9.5417029442043628e-13  1.0305175077654340e-12  1.2353049476823288e-12  1.5876622658075467e-12  2.1199993106654272e-12  2.8854073967044555e-12  3.9573752356987455e-12  5.4156269326075800e-12  7.3143930591415587e-12  9.6372617993534706e-12  1.2255168220203445e-11  1.4915376323292299e-11  1.7294709521625665e-11  1.9182219184616848e-11  2.1176002347490372e-11  2.8538320588082307e-11  7.5416143729250699e-11  3.7789012798050568e-10  2.2833088532080150e-09  1.4008633620521182e-08  8.4175414836830492e-08  4.8918563052528704e-07  2.7191151075970699e-06  1.4267180811008765e-05  6.9617382998174253e-05  3.0984525921295470e-04  1.2372081157727788e-03  4.2887497168883548e-03  1.2636293345662313e-02  2.9907055648219907e-02  5.4818822500849337e-02  7.1934859167509760e-02  6.3299572587652925e-02  3.8334976601583241e-02  1.7396446581151519e-02  6.0847526180133320e-03  1.6256086235499662e-03  2.7288058640113168e-04  1.9669839146699367e-05  6.2641483608624169e-07  5.4401299390117585e-08  5.0485833628955942e-09  1.0113052491027190e-09  2.1115651096644868e-10  4.5460131861132398e-11  9.5246526601832740e-12  2.5510037546446031e-12  1.3179477893669388e-12  1.1292872372759366e-12  1.1141508778809521e-12  1.1394574445527980e-12  1.2050556360867454e-12  1.3249641852013574e-12  1.5012105613021540e-12  1.7178844490940128e-12  1.9430672483915353e-12  2.1360132914196048e-12  2.2573669465378299e-12  2.2794109123650795e-12  2.1932074693447292e-12  2.0104044009911782e-12  1.7591486186047783e-12  1.4753573676179752e-12  1.1919858739700843e-12  9.2967942323762769e-13  6.9263243237525607e-13  4.7388240074440749e-13  2.7886057956306113e-13  1.3589293380305006e-13  5.9892392644544340e-14  2.7892665928151812e-14  1.4943281925490967e-14  9.7371621992451400e-15  8.3285034011362158e-15  1.9837335737776529e-12  1.9820844720725583e-12  1.9861911152006186e-12  2.0187190929392638e-12  2.1043765528557009e-12  2.2561957312695767e-12  2.4655156012840372e-12  2.7001012962330406e-12  2.9117256935466076e-12  3.0508867872458624e-12  3.0834358017978403e-12  3.0028754033878947e-12  2.8335055563985078e-12  2.6230054809523383e-12  2.4270353061143545e-12  2.2913211130154711e-12  2.2373748792006176e-12  2.2564862941713886e-12  2.3136954671911593e-12  2.3601518723486152e-12  2.3495630949773938e-12  2.2531880154531512e-12  2.0685615408382076e-12  1.8196586634219101e-12  1.5494454144988626e-12  1.3082696551540829e-12  1.1423527792214915e-12  1.0858077067630417e-12  1.1579492421261981e-12  1.3660409004229296e-12  1.7123839952492506e-12  2.2036169958971395e-12  2.8589615745234174e-12  3.7130444367167208e-12  4.8087058550352673e-12  6.1773472106268008e-12  7.8100006887299150e-12  9.6305285005196210e-12  1.1489292862899545e-11  1.3198284777650950e-11  1.4646275271234517e-11  1.6213483527109619e-11  2.0948239589526040e-11  4.7636802121065145e-11  2.0946713397482286e-10  1.1751853010522272e-09  6.7778423253354798e-09  3.8115299754636542e-08  2.0541897865972391e-07  1.0476743039872707e-06  4.9897808160783649e-06  2.1847528023613568e-05  8.6575708636842528e-05  3.0353242334724828e-04  9.2288293628203712e-04  2.3521993515919198e-03  4.8826988068635920e-03  7.9347346183255476e-03  9.7653547414672387e-03  8.9743945169617947e-03  6.1862547060747546e-03  3.2696434276543902e-03  1.3673711134464539e-03  4.5455232584408153e-04  1.1616674111134365e-04  2.0403451944291301e-05  2.2767590279887615e-06  2.1885303177377973e-07  2.5834342361097221e-08  3.5359072103551229e-09  5.4381593942129462e-10  8.8004597751782173e-11  1.5207440754959458e-11  3.2869323260142213e-12  1.3406095238509320e-12  1.0360156347958787e-12  1.0082681163425393e-12  1.0537482843075159e-12  1.1601772253199915e-12  1.3365330638493550e-12  1.5790802976519129e-12  1.8644138600607489e-12  2.1520162408131635e-12  2.3928251875181318e-12  2.5411724130611249e-12  2.5665999265333472e-12  2.4619258804405000e-12  2.2450284728388244e-12  1.9538114848255027e-12  1.6359311036470606e-12  1.3363409575927600e-12  1.0861712976184759e-12  8.9593398193642438e-13  7.5505543492622895e-13  6.3856311629918859e-13  5.2351850902372099e-13  4.0908496696272452e-13  3.1106282977959938e-13  2.4051133233672005e-13  1.9940802629499535e-13  1.8607951942343374e-13  1.5635507369008062e-12  1.5840291167535040e-12  1.6522161055232162e-12  1.7839524329519512e-12  1.9929197860036580e-12  2.2776856300191684e-12  2.6131303582721054e-12  2.9508150910487536e-12  3.2294364359337400e-12  3.3924461277664869e-12  3.4066926594481004e-12  3.2749572834941821e-12  3.0371679944620284e-12  2.7592617477956993e-12  2.5133331942711514e-12  2.3558316061871322e-12  2.3110149738319074e-12  2.3648238361593638e-12  2.4708205293574942e-12  2.5660153920873787e-