<?xml version="1.0"?>
<VTKFile type="UnstructuredGrid"  version="0.1"  >
<UnstructuredGrid>
<Piece  NumberOfPoints="20201" NumberOfCells="40000">
<Points>
<DataArray  type="Float64"  NumberOfComponents="3"  format="ascii">0 0 0  2 0 0  4 0 0  6 0 0  8 0 0  10 0 0  12 0 0  14 0 0  16 0 0  18 0 0  20 0 0  22 0 0  24 0 0  26 0 0  28 0 0  30 0 0  32 0 0  34 0 0  36 0 0  38 0 0  40 0 0  42 0 0  44 0 0  46 0 0  48 0 0  50 0 0  52 0 0  54 0 0  56 0 0  58 0 0  60 0 0  62 0 0  64 0 0  66 0 0  68 0 0  70 0 0  72 0 0  74 0 0  76 0 0  78 0 0  80 0 0  82 0 0  84 0 0  86 0 0  88 0 0  90 0 0  92 0 0  94 0 0  96 0 0  98 0 0  100 0 0  102 0 0  104 0 0  106 0 0  108 0 0  110 0 0  112 0 0  114 0 0  116 0 0  118 0 0  120 0 0  122 0 0  124 0 0  126 0 0  128 0 0  130 0 0  132 0 0  134 0 0  136 0 0  138 0 0  140 0 0  142 0 0  144 0 0  146 0 0  148 0 0  150 0 0  152 0 0  154 0 0  156 0 0  158 0 0  160 0 0  162 0 0  164 0 0  166 0 0  168 0 0  170 0 0  172 0 0  174 0 0  176 0 0  178 0 0  180 0 0  182 0 0  184 0 0  186 0 0  188 0 0  190 0 0  192 0 0  194 0 0  196 0 0  198 0 0  200 0 0  0 2 0  2 2 0  4 2 0  6 2 0  8 2 0  10 2 0  12 2 0  14 2 0  16 2 0  18 2 0  20 2 0  22 2 0  24 2 0  26 2 0  28 2 0  30 2 0  32 2 0  34 2 0  36 2 0  38 2 0  40 2 0  42 2 0  44 2 0  46 2 0  48 2 0  50 2 0  52 2 0  54 2 0  56 2 0  58 2 0  60 2 0  62 2 0  64 2 0  66 2 0  68 2 0  70 2 0  72 2 0  74 2 0  76 2 0  78 2 0  80 2 0  82 2 0  84 2 0  86 2 0  88 2 0  90 2 0  92 2 0  94 2 0  96 2 0  98 2 0  100 2 0  102 2 0  104 2 0  106 2 0  108 2 0  110 2 0  112 2 0  114 2 0  116 2 0  118 2 0  120 2 0  122 2 0  124 2 0  126 2 0  128 2 0  130 2 0  132 2 0  134 2 0  136 2 0  138 2 0  140 2 0  142 2 0  144 2 0  146 2 0  148 2 0  150 2 0  152 2 0  154 2 0  156 2 0  158 2 0  160 2 0  162 2 0  164 2 0  166 2 0  168 2 0  170 2 0  172 2 0  174 2 0  176 2 0  178 2 0  180 2 0  182 2 0  184 2 0  186 2 0  188 2 0  190 2 0  192 2 0  194 2 0  196 2 0  198 2 0  200 2 0  0 4 0  2 4 0  4 4 0  6 4 0  8 4 0  10 4 0  12 4 0  14 4 0  16 4 0  18 4 0  20 4 0  22 4 0  24 4 0  26 4 0  28 4 0  30 4 0  32 4 0  34 4 0  36 4 0  38 4 0  40 4 0  42 4 0  44 4 0  46 4 0  48 4 0  50 4 0  52 4 0  54 4 0  56 4 0  58 4 0  60 4 0  62 4 0  64 4 0  66 4 0  68 4 0  70 4 0  72 4 0  74 4 0  76 4 0  78 4 0  80 4 0  82 4 0  84 4 0  86 4 0  88 4 0  90 4 0  92 4 0  94 4 0  96 4 0  98 4 0  100 4 0  102 4 0  104 4 0  106 4 0  108 4 0  110 4 0  112 4 0  114 4 0  116 4 0  118 4 0  120 4 0  122 4 0  124 4 0  126 4 0  128 4 0  130 4 0  132 4 0  134 4 0  136 4 0  138 4 0  140 4 0  142 4 0  144 4 0  146 4 0  148 4 0  150 4 0  152 4 0  154 4 0  156 4 0  158 4 0  160 4 0  162 4 0  164 4 0  166 4 0  168 4 0  170 4 0  172 4 0  174 4 0  176 4 0  178 4 0  180 4 0  182 4 0  184 4 0  186 4 0  188 4 0  190 4 0  192 4 0  194 4 0  196 4 0  198 4 0  200 4 0  0 6 0  2 6 0  4 6 0  6 6 0  8 6 0  10 6 0  12 6 0  14 6 0  16 6 0  18 6 0  20 6 0  22 6 0  24 6 0  26 6 0  28 6 0  30 6 0  32 6 0  34 6 0  36 6 0  38 6 0  40 6 0  42 6 0  44 6 0  46 6 0  48 6 0  50 6 0  52 6 0  54 6 0  56 6 0  58 6 0  60 6 0  62 6 0  64 6 0  66 6 0  68 6 0  70 6 0  72 6 0  74 6 0  76 6 0  78 6 0  80 6 0  82 6 0  84 6 0  86 6 0  88 6 0  90 6 0  92 6 0  94 6 0  96 6 0  98 6 0  100 6 0  102 6 0  104 6 0  106 6 0  108 6 0  110 6 0  112 6 0  114 6 0  116 6 0  118 6 0  120 6 0  122 6 0  124 6 0  126 6 0  128 6 0  130 6 0  132 6 0  134 6 0  136 6 0  138 6 0  140 6 0  142 6 0  144 6 0  146 6 0  148 6 0  150 6 0  152 6 0  154 6 0  156 6 0  158 6 0  160 6 0  162 6 0  164 6 0  166 6 0  168 6 0  170 6 0  172 6 0  174 6 0  176 6 0  178 6 0  180 6 0  182 6 0  184 6 0  186 6 0  188 6 0  190 6 0  192 6 0  194 6 0  196 6 0  198 6 0  200 6 0  0 8 0  2 8 0  4 8 0  6 8 0  8 8 0  10 8 0  12 8 0  14 8 0  16 8 0  18 8 0  20 8 0  22 8 0  24 8 0  26 8 0  28 8 0  30 8 0  32 8 0  34 8 0  36 8 0  38 8 0  40 8 0  42 8 0  44 8 0  46 8 0  48 8 0  50 8 0  52 8 0  54 8 0  56 8 0  58 8 0  60 8 0  62 8 0  64 8 0  66 8 0  68 8 0  70 8 0  72 8 0  74 8 0  76 8 0  78 8 0  80 8 0  82 8 0  84 8 0  86 8 0  88 8 0  90 8 0  92 8 0  94 8 0  96 8 0  98 8 0  100 8 0  102 8 0  104 8 0  106 8 0  108 8 0  110 8 0  112 8 0  114 8 0  116 8 0  118 8 0  120 8 0  122 8 0  124 8 0  126 8 0  128 8 0  130 8 0  132 8 0  134 8 0  136 8 0  138 8 0  140 8 0  142 8 0  144 8 0  146 8 0  148 8 0  150 8 0  152 8 0  154 8 0  156 8 0  158 8 0  160 8 0  162 8 0  164 8 0  166 8 0  168 8 0  170 8 0  172 8 0  174 8 0  176 8 0  178 8 0  180 8 0  182 8 0  184 8 0  186 8 0  188 8 0  190 8 0  192 8 0  194 8 0  196 8 0  198 8 0  200 8 0  0 10 0  2 10 0  4 10 0  6 10 0  8 10 0  10 10 0  12 10 0  14 10 0  16 10 0  18 10 0  20 10 0  22 10 0  24 10 0  26 10 0  28 10 0  30 10 0  32 10 0  34 10 0  36 10 0  38 10 0  40 10 0  42 10 0  44 10 0  46 10 0  48 10 0  50 10 0  52 10 0  54 10 0  56 10 0  58 10 0  60 10 0  62 10 0  64 10 0  66 10 0  68 10 0  70 10 0  72 10 0  74 10 0  76 10 0  78 10 0  80 10 0  82 10 0  84 10 0  86 10 0  88 10 0  90 10 0  92 10 0  94 10 0  96 10 0  98 10 0  100 10 0  102 10 0  104 10 0  106 10 0  108 10 0  110 10 0  112 10 0  114 10 0  116 10 0  118 10 0  120 10 0  122 10 0  124 10 0  126 10 0  128 10 0  130 10 0  132 10 0  134 10 0  136 10 0  138 10 0  140 10 0  142 10 0  144 10 0  146 10 0  148 10 0  150 10 0  152 10 0  154 10 0  156 10 0  158 10 0  160 10 0  162 10 0  164 10 0  166 10 0  168 10 0  170 10 0  172 10 0  174 10 0  176 10 0  178 10 0  180 10 0  182 10 0  184 10 0  186 10 0  188 10 0  190 10 0  192 10 0  194 10 0  196 10 0  198 10 0  200 10 0  0 12 0  2 12 0  4 12 0  6 12 0  8 12 0  10 12 0  12 12 0  14 12 0  16 12 0  18 12 0  20 12 0  22 12 0  24 12 0  26 12 0  28 12 0  30 12 0  32 12 0  34 12 0  36 12 0  38 12 0  40 12 0  42 12 0  44 12 0  46 12 0  48 12 0  50 12 0  52 12 0  54 12 0  56 12 0  58 12 0  60 12 0  62 12 0  64 12 0  66 12 0  68 12 0  70 12 0  72 12 0  74 12 0  76 12 0  78 12 0  80 12 0  82 12 0  84 12 0  86 12 0  88 12 0  90 12 0  92 12 0  94 12 0  96 12 0  98 12 0  100 12 0  102 12 0  104 12 0  106 12 0  108 12 0  110 12 0  112 12 0  114 12 0  116 12 0  118 12 0  120 12 0  122 12 0  124 12 0  126 12 0  128 12 0  130 12 0  132 12 0  134 12 0  136 12 0  138 12 0  140 12 0  142 12 0  144 12 0  146 12 0  148 12 0  150 12 0  152 12 0  154 12 0  156 12 0  158 12 0  160 12 0  162 12 0  164 12 0  166 12 0  168 12 0  170 12 0  172 12 0  174 12 0  176 12 0  178 12 0  180 12 0  182 12 0  184 12 0  186 12 0  188 12 0  190 12 0  192 12 0  194 12 0  196 12 0  198 12 0  200 12 0  0 14 0  2 14 0  4 14 0  6 14 0  8 14 0  10 14 0  12 14 0  14 14 0  16 14 0  18 14 0  20 14 0  22 14 0  24 14 0  26 14 0  28 14 0  30 14 0  32 14 0  34 14 0  36 14 0  38 14 0  40 14 0  42 14 0  44 14 0  46 14 0  48 14 0  50 14 0  52 14 0  54 14 0  56 14 0  58 14 0  60 14 0  62 14 0  64 14 0  66 14 0  68 14 0  70 14 0  72 14 0  74 14 0  76 14 0  78 14 0  80 14 0  82 14 0  84 14 0  86 14 0  88 14 0  90 14 0  92 14 0  94 14 0  96 14 0  98 14 0  100 14 0  102 14 0  104 14 0  106 14 0  108 14 0  110 14 0  112 14 0  114 14 0  116 14 0  118 14 0  120 14 0  122 14 0  124 14 0  126 14 0  128 14 0  130 14 0  132 14 0  134 14 0  136 14 0  138 14 0  140 14 0  142 14 0  144 14 0  146 14 0  148 14 0  150 14 0  152 14 0  154 14 0  156 14 0  158 14 0  160 14 0  162 14 0  164 14 0  166 14 0  168 14 0  170 14 0  172 14 0  174 14 0  176 14 0  178 14 0  180 14 0  182 14 0  184 14 0  186 14 0  188 14 0  190 14 0  192 14 0  194 14 0  196 14 0  198 14 0  200 14 0  0 16 0  2 16 0  4 16 0  6 16 0  8 16 0  10 16 0  12 16 0  14 16 0  16 16 0  18 16 0  20 16 0  22 16 0  24 16 0  26 16 0  28 16 0  30 16 0  32 16 0  34 16 0  36 16 0  38 16 0  40 16 0  42 16 0  44 16 0  46 16 0  48 16 0  50 16 0  52 16 0  54 16 0  56 16 0  58 16 0  60 16 0  62 16 0  64 16 0  66 16 0  68 16 0  70 16 0  72 16 0  74 16 0  76 16 0  78 16 0  80 16 0  82 16 0  84 16 0  86 16 0  88 16 0  90 16 0  92 16 0  94 16 0  96 16 0  98 16 0  100 16 0  102 16 0  104 16 0  106 16 0  108 16 0  110 16 0  112 16 0  114 16 0  116 16 0  118 16 0  120 16 0  122 16 0  124 16 0  126 16 0  128 16 0  130 16 0  132 16 0  134 16 0  136 16 0  138 16 0  140 16 0  142 16 0  144 16 0  146 16 0  148 16 0  150 16 0  152 16 0  154 16 0  156 16 0  158 16 0  160 16 0  162 16 0  164 16 0  166 16 0  168 16 0  170 16 0  172 16 0  174 16 0  176 16 0  178 16 0  180 16 0  182 16 0  184 16 0  186 16 0  188 16 0  190 16 0  192 16 0  194 16 0  196 16 0  198 16 0  200 16 0  0 18 0  2 18 0  4 18 0  6 18 0  8 18 0  10 18 0  12 18 0  14 18 0  16 18 0  18 18 0  20 18 0  22 18 0  24 18 0  26 18 0  28 18 0  30 18 0  32 18 0  34 18 0  36 18 0  38 18 0  40 18 0  42 18 0  44 18 0  46 18 0  48 18 0  50 18 0  52 18 0  54 18 0  56 18 0  58 18 0  60 18 0  62 18 0  64 18 0  66 18 0  68 18 0  70 18 0  72 18 0  74 18 0  76 18 0  78 18 0  80 18 0  82 18 0  84 18 0  86 18 0  88 18 0  90 18 0  92 18 0  94 18 0  96 18 0  98 18 0  100 18 0  102 18 0  104 18 0  106 18 0  108 18 0  110 18 0  112 18 0  114 18 0  116 18 0  118 18 0  120 18 0  122 18 0  124 18 0  126 18 0  128 18 0  130 18 0  132 18 0  134 18 0  136 18 0  138 18 0  140 18 0  142 18 0  144 18 0  146 18 0  148 18 0  150 18 0  152 18 0  154 18 0  156 18 0  158 18 0  160 18 0  162 18 0  164 18 0  166 18 0  168 18 0  170 18 0  172 18 0  174 18 0  176 18 0  178 18 0  180 18 0  182 18 0  184 18 0  186 18 0  188 18 0  190 18 0  192 18 0  194 18 0  196 18 0  198 18 0  200 18 0  0 20 0  2 20 0  4 20 0  6 20 0  8 20 0  10 20 0  12 20 0  14 20 0  16 20 0  18 20 0  20 20 0  22 20 0  24 20 0  26 20 0  28 20 0  30 20 0  32 20 0  34 20 0  36 20 0  38 20 0  40 20 0  42 20 0  44 20 0  46 20 0  48 20 0  50 20 0  52 20 0  54 20 0  56 20 0  58 20 0  60 20 0  62 20 0  64 20 0  66 20 0  68 20 0  70 20 0  72 20 0  74 20 0  76 20 0  78 20 0  80 20 0  82 20 0  84 20 0  86 20 0  88 20 0  90 20 0  92 20 0  94 20 0  96 20 0  98 20 0  100 20 0  102 20 0  104 20 0  106 20 0  108 20 0  110 20 0  112 20 0  114 20 0  116 20 0  118 20 0  120 20 0  122 20 0  124 20 0  126 20 0  128 20 0  130 20 0  132 20 0  134 20 0  136 20 0  138 20 0  140 20 0  142 20 0  144 20 0  146 20 0  148 20 0  150 20 0  152 20 0  154 20 0  156 20 0
[...]
<PointData  Scalars="f_271-5"> 
<DataArray  type="Float64"  Name="f_271-5"  format="ascii">1.0956970731245831e-03  1.0156299459324516e-03  8.1089003111775658e-04  5.6189024065173986e-04  3.4652447591722329e-04  2.1429621468888570e-04  1.8612511381719719e-04  2.6076143202465697e-04  4.1462028807155948e-04  5.9853043823305803e-04  7.4701976247235936e-04  8.0667954575988523e-04  7.6392267145092578e-04  6.4575418422218732e-04  4.9540382684080801e-04  3.4837574265803722e-04  2.2460626564284355e-04  1.3195884879678571e-04  7.0968131635185664e-05  3.7102635504918815e-05  2.2240244863550118e-05  1.7260422528837697e-05  1.5321733800160597e-05  1.3990034472831545e-05  1.4943733354011194e-05  2.1497654092508398e-05  3.5359715885314006e-05  5.4330051050001672e-05  7.2282058159919748e-05  8.1928690282887198e-05  7.9509594830620497e-05  6.9276850489002106e-05  6.6131203301483010e-05  9.7639656427898913e-05  2.1000639354672683e-04  4.8280309055159527e-04  1.0492827191748062e-03  2.0908127571013790e-03  3.7182848829100707e-03  5.6728962942237584e-03  7.1285633271756868e-03  7.2177517830774272e-03  5.9628177885456806e-03  4.2122511370842677e-03  2.7105099265565180e-03  1.6743219621130092e-03  1.0153879646781433e-03  6.0180854859748093e-04  3.4366164805336877e-04  1.8770660769854187e-04  1.0006857010723115e-04  5.7870506254529393e-05  4.7886033000801231e-05  6.9424386689216121e-05  1.5272190722329752e-04  5.0540716930055787e-04  2.7980554954231897e-03  2.1967615545716041e-02  1.6866373693285283e-01  6.2474651366058109e-01  8.8606730809605105e-01  8.8711405957312783e-01  5.9979206741298130e-01  1.2700984090495870e-01  2.7276211629940314e-03  -7.0529277111083051e-05  3.7185171240881248e-06  -2.1147714529131533e-08  1.1497556490740903e-06  2.2962482620250013e-05  9.8443468428495231e-05  1.9257164682742601e-04  2.8518040774515226e-04  3.5876985257498635e-04  3.9371443181160110e-04  3.8201419548555783e-04  3.3110034401707391e-04  2.5829631131051565e-04  1.8215081913042509e-04  1.1632776135829059e-04  6.7616544615856506e-05  3.6752880701378392e-05  2.0468333116590259e-05  1.3829275010588084e-05  1.2291938582934616e-05  1.3015324633912691e-05  1.5144223203372447e-05  1.9105699030793290e-05  2.5325947285770098e-05  3.2879044708012840e-05  3.8338850869142523e-05  3.5241865971891861e-05  1.8271204252692737e-05  2.4360709731019509e-06  4.8278558905691941e-08  4.6950403099078937e-09  1.0715320963640486e-09  3.2066374869678239e-10  3.2691406499810128e-10  7.3747476832503359e-10  1.0185033349326989e-09  1.0387786892535101e-03  9.6454315249418384e-04  7.7394804682593592e-04  5.4038045220091053e-04  3.3605728382699263e-04  2.0799879561182540e-04  1.7685546005697240e-04  2.4225894073259281e-04  3.8281540482627813e-04  5.5344032727436634e-04  6.9377703965927838e-04  7.5376843951283350e-04  7.1916342049577642e-04  6.1314849567116751e-04  4.7490788759861613e-04  3.3763580166142737e-04  2.2066500509762102e-04  1.3209809907702543e-04  7.2973257260507121e-05  3.9388154709905250e-05  2.3948349146507240e-05  1.8222086515659965e-05  1.5810233473461277e-05  1.4349435458811992e-05  1.5266304707924510e-05  2.1497540196002616e-05  3.4489933244750279e-05  5.2085703936481663e-05  6.8553507422020843e-05  7.7220842566260749e-05  7.4875727671844564e-05  6.5966240902326568e-05  6.5117892264806359e-05  9.9184416360540342e-05  2.1312978961387437e-04  4.8417549988858120e-04  1.0409619187608586e-03  2.0575065382484512e-03  3.6391801772023809e-03  5.5372392701148083e-03  6.9596147566225400e-03  7.0682033113810723e-03  5.8703911685357079e-03  4.1746524160270861e-03  2.7053159407597334e-03  1.6828051333703446e-03  1.0281199781980992e-03  6.1512376280768819e-04  3.5621769332152441e-04  1.9896973426535187e-04  1.0987465838296911e-04  6.6274789712839145e-05  5.4942556684946035e-05  7.4620488615360846e-05  1.5233362768464975e-04  4.7010796480788158e-04  2.4291439999311964e-03  1.7435497762815770e-02  1.2034605887670614e-01  4.7736207433643707e-01  7.8081290528452796e-01  7.7894096383471834e-01  4.5332458214073723e-01  9.4487096950173988e-02  3.8208333817243505e-03  -8.9843582990663381e-05  6.6940502547687012e-06  -3.9160419586940608e-08  2.4053996202016881e-06  2.7412295519431521e-05  9.6278021844179245e-05  1.8177832729318732e-04  2.6793918074402378e-04  3.3684401980053734e-04  3.6989560681613496e-04  3.5958196382939199e-04  3.1270733303845121e-04  2.4527746325293386e-04  1.7451865715853272e-04  1.1320091321827025e-04  6.7739945161574382e-05  3.8919458031948190e-05  2.3780952239818002e-05  1.7792405975429721e-05  1.6747835705904229e-05  1.7971064605649346e-05  2.0568190621736837e-05  2.4783643721902036e-05  3.0842251997667728e-05  3.7747292094519209e-05  4.2295297071145780e-05  3.8698392408223267e-05  2.1888649615102024e-05  3.8947374231277318e-06  1.2967879683452953e-07  8.4140826633624882e-09  1.0066425340493819e-09  2.9868907788204557e-10  4.0659120728126283e-10  9.4190088685968579e-10  1.2774703428448300e-09  8.8490179945772713e-04  8.2578115892219727e-04  6.7221768116815131e-04  4.7988328483058182e-04  3.0614595975952182e-04  1.9100104819816112e-04  1.5391836959093345e-04  1.9663493513756125e-04  3.0334002382125734e-04  4.3929177940925135e-04  5.5716567957474292e-04  6.1588335026541651e-04  6.0038302675070692e-04  5.2485991508326678e-04  4.1827364419057760e-04  3.0746729144259897e-04  2.0965573036865580e-04  1.3313599712279505e-04  8.0015699934327483e-05  4.7922720149781360e-05  3.1332027879450340e-05  2.3638900742325416e-05  1.9672149646595578e-05  1.7351276786068268e-05  1.7548410586478972e-05  2.2310160756450731e-05  3.2494094557375782e-05  4.6142228415639159e-05  5.8630226456301241e-05  6.4924853081492319e-05  6.3219051046892589e-05  5.8374740679021392e-05  6.4111472459042941e-05  1.0507270627491065e-04  2.2228335157171481e-04  4.8534845781408501e-04  1.0078344925998340e-03  1.9392351874337650e-03  3.3644500786413198e-03  5.0626152558862396e-03  6.3514398071828800e-03  6.5011947080321937e-03  5.4872350218729540e-03  3.9871093636759140e-03  2.6456459208250888e-03  1.6854822901721579e-03  1.0561381955495950e-03  6.5190445772703382e-04  3.9457004722507163e-04  2.3549884974700358e-04  1.4300598816267563e-04  9.5482104619342762e-05  7.9975975573990101e-05  9.3921475784328464e-05  1.5643722247189938e-04  3.9004707883092722e-04  1.6148909930460292e-03  9.1039391535481882e-03  4.7748593224647862e-02  1.7847139096834747e-01  3.6433192781173529e-01  3.6042837630304358e-01  1.7025209177795583e-01  4.2005978947558149e-02  4.6564591756380570e-03  8.9197026159008573e-05  1.0054307736680226e-05  4.7594778519628894e-06  9.8273705617676697e-06  3.5786756715456456e-05  8.6292562846714460e-05  1.5214407695165601e-04  2.2181605355508867e-04  2.7841370493636891e-04  3.0643127313681993e-04  2.9968743787448285e-04  2.6341890269738881e-04  2.1026582498781597e-04  1.5403881198336995e-04  1.0516680403029829e-04  6.9053019112293119e-05  4.6543281716208092e-05  3.5388509827244977e-05  3.1964065461123617e-05  3.2781629069053654e-05  3.5452223978300369e-05  3.8912717447456651e-05  4.2973136003458817e-05  4.7483848042063960e-05  5.1483620076626393e-05  5.2561637081342244e-05  4.6784426393472029e-05  3.0669686927363299e-05  9.8559208498286638e-06  9.4284350479018883e-07  2.5990426523248333e-08  3.2931946199438958e-09  1.9766489190105128e-09  1.9076734573610540e-09  2.3525549505187974e-09  2.7065218641468556e-09  6.7670930594709812e-04  6.3651357510511816e-04  5.3019648740487832e-04  3.9249693812150549e-04  2.6199346954823159e-04  1.6849975589214362e-04  1.2871192777385741e-04  1.4638053700940715e-04  2.1234860415115576e-04  3.0425196751784911e-04  3.9061201519744723e-04  4.4229371793579107e-04  4.4537666431968052e-04  4.0507446903876313e-04  3.3841171671539878e-04  2.6360313952089853e-04  1.9390464592962704e-04  1.3670376969286897e-04  9.4684370000733858e-05  6.6956361004496547e-05  5.0149814554195982e-05  3.9977737852671554e-05  3.3019861246042734e-05  2.7882601842966643e-05  2.5118356599494148e-05  2.6019701304918078e-05  3.1031769391262169e-05  3.8725961848367941e-05  4.6060850469016849e-05  5.0110431846385149e-05  5.0693909061482189e-05  5.2852879081306292e-05  6.8584443894395721e-05  1.1875225859639899e-04  2.3756510873548965e-04  4.8144422085614347e-04  9.3835188444397176e-04  1.7167179559222240e-03  2.8663745307118248e-03  4.2079979501920568e-03  5.2362379445711959e-03  5.4134430649269896e-03  4.6921919783624762e-03  3.5427644010776757e-03  2.4569858431384923e-03  1.6392873469858456e-03  1.0793307386268685e-03  7.0694104710507927e-04  4.6272642173609201e-04  3.0667316826462818e-04  2.1145479580408794e-04  1.5803536731581809e-04  1.3467644337671473e-04  1.3780908886057373e-04  1.7792328415678781e-04  3.1795909091520113e-04  8.9435280681107851e-04  3.4583425372246637e-03  1.3061067447003381e-02  3.7260597997368146e-02  6.8413977247544513e-02  6.8321430930708249e-02  3.7281402805314202e-02  1.2894325180651660e-02  2.8992029897740041e-03  4.1299660656461727e-04  6.9177912111449065e-05  2.9542478821090880e-05  2.4728969520885793e-05  3.7282892647619965e-05  6.7530994515947648e-05  1.1206383256065765e-04  1.6124524637160735e-04  2.0202381390005536e-04  2.2332949572807361e-04  2.2080541067833869e-04  1.9792982875869609e-04  1.6334190121473235e-04  1.2669504306165173e-04  9.5488701946892964e-05  7.3760869168078261e-05  6.2231503950021383e-05  5.9199377913840399e-05  6.1698639957565989e-05  6.6603305249373737e-05  7.1444707642375594e-05  7.4777492904291675e-05  7.6063277429839701e-05  7.5210835384545197e-05  7.2010045045280179e-05  6.5689470587044403e-05  5.4904128558216144e-05  3.8774115491148185e-05  1.9601478619818201e-05  5.4807745299660745e-06  8.2141408830395730e-07  7.1607417332517465e-08  -1.6652937001980697e-08  -1.4445525316395932e-08  -5.6126398528545537e-09  -2.3712091647049046e-09  4.6378573874316672e-04  4.4100580401477480e-04  3.7933209493853291e-04  2.9604897059214564e-04  2.1250616841453479e-04  1.4743532664787199e-04  1.1297346730362059e-04  1.1337889472114003e-04  1.4477483474536877e-04  1.9536173274767063e-04  2.4775873058346449e-04  2.8482527052431226e-04  2.9656050903345592e-04  2.8318520916339383e-04  2.5246769316724239e-04  2.1433765285707978e-04  1.7684916424556141e-04  1.4477406036196396e-04  1.1979989428210464e-04  1.0124147586612159e-04  8.6987794495300223e-05  7.4682806428143244e-05  6.2847757954118214e-05  5.1451862494229112e-05  4.1664232255991233e-05  3.4971602228141116e-05  3.2178438788528152e-05  3.2864029388205156e-05  3.5686848972501224e-05  3.9571096824650827e-05  4.5394165334526634e-05  5.7590701436568933e-05  8.5430951957139975e-05  1.4457763893751366e-04  2.6016890411278764e-04  4.7185447528731879e-04  8.3703441610096950e-04  1.4185023119323605e-03  2.2312911978701637e-03  3.1463345287876957e-03  3.8507086839639037e-03  4.0207764138738165e-03  3.6092296171107855e-03  2.8763970198129383e-03  2.1293748962769410e-03  1.5260275783564887e-03  1.0874675243597637e-03  7.8182657763747865e-04  5.7300641986810018e-04  4.3253036977042292e-04  3.3911639550193311e-04  2.7778368855584757e-04  2.3981787927837149e-04  2.2275243666380808e-04  2.3186902038463300e-04  2.9238767889279763e-04  5.0345703929011848e-04  1.1850992510937591e-03  2.9849373880984696e-03  6.2363436453220884e-03  9.2988448476326157e-03  9.4462692117572595e-03  6.5044652401949447e-03  3.1286697153640511e-03  1.1436798904635140e-03  3.5560105430386098e-04  1.1755713620423097e-04  5.1431956400190350e-05  3.1155420470866508e-05  3.1226787788857113e-05  4.6792386194285497e-05  7.3359409715667074e-05  1.0370359976705379e-04  1.2937249709898453e-04  1.4368177985601998e-04  1.4418855549716233e-04  1.3318665729331324e-04  1.1614954536326242e-04  9.9305814394324939e-05  8.7640163105438899e-05  8.3855749178306281e-05  8.8164720537737634e-05  9.8613040393393938e-05  1.1176798973436409e-04  1.2367681208131254e-04  1.3092758472729179e-04  1.3150391141652357e-04  1.2511738340895690e-04  1.1292144169341815e-04  9.6816389384721857e-05  7.8721791813761985e-05  6.0179345644562425e-05  4.2516547229616111e-05  2.7338648030550595e-05  1.6227013039235848e-05  9.2613419733141241e-06  4.9038357474494998e-06  2.3728440880736455e-06  1.1091641549243659e-06  5.6895241904809099e-07  4.2505748958058689e-07  2.8474571829502474e-04  2.7475729469049346e-04  2.4706825946472529e-04  2.0822917777591152e-04  1.6754134639027505e-04  1.3419935737742441e-04  1.1464467090669094e-04  1.1127335829113373e-04  1.2231840205514512e-04  1.4244568201113113e-04  1.6420003744259829e-04  1.8050587648913842e-04  1.8737882154916708e-04  1.8516330891323350e-04  1.7746936538025213e-04  1.6875688643741584e-04  1.6218983999661337e-04  1.5861369909670156e-04  1.5660976339282697e-04  1.5332824525511249e-04  1.4581476905567767e-04  1.3237781121736770e-04  1.1339255909378978e-04  9.1174280227511922e-05  6.9082910393133398e-05  5.0388499000924050e-05  3.7410613772076521e-05  3.1208764892226715e-05  3.1872927963358718e-05  3.9300022631921348e-05  5.4222312070791799e-05  7.9237784972307397e-05  1.1978431863707928e-04  1.8533563156345468e-04  2.9120608907112132e-04  4.6059541325826247e-04  7.2407896948648975e-04  1.1093474483327927e-03  1.6118519886958705e-03  2.1525177887309977e-03  2.5703755513946606e-03  2.7065052046639638e-03  2.5288841787547960e-03  2.1524800293632688e-03  1.7328264988961356e-03  1.3688446409268170e-03  1.0909384050811085e-03  8.9225462337180902e-04  7.5339262322800878e-04  6.5262008446978080e-04  5.7105815866314029e-04  4.9729247294079642e-04  4.2924087306971402e-04  3.7167437777674869e-04  3.3237720879783017e-04  3.2232615981753584e-04  3.6428068242438022e-04  5.0527847876565685e-04  7.9842316973094375e-04  1.2081845710555763e-03  1.5386035702694447e-03  1.5555105565209198e-03  1.2304442319360125e-03  7.7324227861820733e-04  4.0579881283669863e-04  1.9399457581952757e-04  9.2200752817590484e-05  4.6452481471194323e-05  2.7523525498728398e-05  2.4235251831566269e-05  3.1979004152530519e-05  4.6713152954586190e-05  6.3561491125999810e-05  7.7610837943808413e-05  8.5452627873782488e-05  8.6378140988715730e-05  8.2520455847425687e-05  7.7926529365007015e-05  7.7116973531536417e-05  8.3736135865540023e-05  9.9558521554592020e-05  1.2386308618410772e-04  1.5323836751833235e-04  1.8205507340690727e-04  2.0379446668504766e-04  2.1299970151608463e-04  2.0708400462272618e-04  1.8711016046972631e-04  1.5719626228846663e-04  1.2299386630091781e-04  9.0065645741812858e-05  6.2769676667893953e-05  4.3766461342788537e-05  3.3823464379173276e-05  3.1427227546452732e-05  3.2405730068061322e-05  3.1540365268150768e-05  2.6754300703781016e-05  2.0208711271000855e-05  1.5108881369521733e-05  1.3267988645275128e-05  1.5901656223297298e-04  1.5641355227171260e-04  1.4951159520860475e-04  1.4094150490966370e-04  1.3430251730893185e-04  1.3256215111620700e-04  1.3654839166794017e-04  1.4446634710815558e-04  1.5263147134464612e-04  1.5705774218540398e-04  1.5525566972127210e-04  1.4748001034448527e-04  1.3683632144651195e-04  1.2818085017446990e-04  1.2634544297536178e-04  1.3442488569160498e-04  1.5258690768112790e-04  1.7755394687069147e-04  2.0295914286834173e-04  2.2091315244753045e-04  2.2467172743447736e-04  2.1130409397294479e-04  1.8281821125275038e-04  1.4511615766836717e-04  1.0564451396603840e-04  7.1190556210315003e-05  4.6666182758945141e-05  3.4854514464769609e-05  3.6721982609836992e-05  5.1980936673062125e-05  7.9776969790629790e-05  1.1949369580860736e-04  1.7171804110095728e-04  2.3939472139532873e-04  3.2902815254325855e-04  4.5129407783568991e-04  6.1945295675467564e-04  8.4284496706902787e-04  1.1136788336180503e-03  1.3927212091693665e-03  1.6117378056445001e-03  1.7070972128432154e-03  1.6638703971905220e-03  1.5250510571536899e-03  1.3573353409907058e-03  1.2131542155214682e-03  1.1176339175242903e-03  1.0720813731001191e-03  1.0581016009319276e-03  1.0424968938761196e-03  9.9157541067659729e-04  8.9142709971702758e-04  7.5595665070756011e-04  6.1412314688886029e-04  4.9096844203373507e-04  3.9953218540227938e-04  3.4437271502743653e-04  3.2687006093608283e-04  3.4372298973803472e-04  3.7932934949037064e-04  4.0394425668744294e-04  3.8874817706732203e-04  3.2759955260317901e-04  2.4119554636567971e-04  1.5824817788846575e-04  9.5615310078579158e-05  5.5185244340957563e-05  3.2187110260878798e-05  2.2006806518107950e-05  2.1501175015777078e-05  2.7929993884382739e-05  3.8051661085573144e-05  4.8194156297894508e-05  5.5148395710281384e-05  5.7319154681459079e-05  5.5476596249728344e-05  5.2686121811242696e-05  5.3466016741002044e-05  6.2565709664123698e-05  8.3705065188731230e-05  1.1834888722446467e-04  1.6455560894435006e-04  2.1630379418397183e-04  2.6406600001923860e-04  2.9713409409700954e-04  3.0715899322692858e-04  2.9128008973110828e-04  2.5315755147239379e-04  2.0145012871119179e-04  1.4678714410530633e-04  9.8813598018793764e-05  6.4278914357490679e-05  4.6222734967890502e-05  4.3836087011014460e-05  5.2704009157205453e-05  6.5676016733909681e-05  7.5035743879063967e-05  7.5959640318786880e-05  6.9269220125952368e-05  6.0746606690208384e-05  5.6970371181259182e-05  8.8263086333241519e-05  8.8360747034896454e-05  9.0363710223218671e-05  9.8203644425697668e-05  1.1538589736298379e-04  1.4255944102758143e-04  1.7624555508871187e-04  2.0905569400376828e-04  2.3162034547442647e-04  2.3605836442434233e-04  2.1975667824896197e-04  1.8734341937315911e-04  1.4939258510255206e-04  1.1853933151046139e-04  1.0529368508789194e-04  1.1534413242127522e-04  1.4843524253432084e-04  1.9806379965970025e-04  2.5203125734897140e-04  2.9498267871544978e-04  3.1341168931353229e-04  3.0109738925335666e-04  2.6143707787993839e-04  2.0514469400811775e-04  1.4539140943757895e-04  9.3685621822723326e-05  5.8023303132409348e-05  4.2762305158242020e-05  4.9099657195156787e-05  7.5558540804205072e-05  1.1851304779710222e-04  1.7303540979369948e-04  2.3424363944000862e-04  2.9898818350902409e-04  3.6731898856353707e-04  4.4291615673128741e-04  5.3166740262722842e-04  6.3792181096229055e-04  7.5906330043123537e-04  8.8146573353484008e-04  9.8306151055540386e-04  1.0448098672991694e-03  1.0641944122413919e-03  1.0592292233172849e-03  1.0605061269111547e-03  1.0999813345375275e-03  1.2022282914625545e-03  1.3724992593155143e-03  1.5767332639085579e-03  1.7321307431743620e-03  1.7438764653637283e-03  1.5779326846513608e-03  1.2910297096149213e-03  9.7927770694933650e-04  7.1138323507494064e-04  5.1000068545885605e-04  3.6990993305201236e-04  2.7780776235988527e-04  2.2065243915039614e-04  1.8652153296226521e-04  1.6418974076403057e-04  1.4438684118298030e-04  1.2199068098736382e-04  9.6691463430614413e-05  7.1228537747049814e-05  4.8863372283538377e-05  3.2014658261422389e-05  2.2160866673368564e-05  1.9951114726864835e-05  2.4929960567037049e-05  3.5143622472020277e-05  4.7174278591275313e-05  5.6916294970387209e-05  6.0999640566686245e-05  5.8319141356604673e-05  5.0899349098122610e-05  4.3607955139065690e-05  4.2899488343917330e-05  5.5210140577097972e-05  8.5403642027000298e-05  1.3516085718526041e-04  2.0124663554408961e-04  2.7441278984494897e-04  3.4037799508784768e-04  3.8364854315984192e-04  3.9299448094200820e-04  3.6582556797498173e-04  3.0909176964505613e-04  2.3645989303369773e-04  1.6359512645680406e-04  1.0385767546829335e-04  6.5702233399552197e-05  5.1771985595081856e-05  5.9099492267829389e-05  8.0062397348443015e-05  1.0425270906031775e-04  1.2152665822281062e-04  1.2582957162594278e-04  1.1821841691331566e-04  1.0669967695054528e-04  1.0132326153297947e-04  6.2125898378369057e-05  6.1651185763538459e-05  6.3940509583731590e-05  7.7304982521239719e-05  1.0894749520426090e-04  1.6055454579618408e-04  2.2637431344134213e-04  2.9345542217637147e-04  3.4440689295309207e-04  3.6315201698961056e-04  3.4219914073093212e-04  2.8739679980280161e-04  2.1647627381392884e-04  1.5197128612166855e-04  1.1316819451931394e-04  1.1119856136897659e-04  1.4754853225284960e-04  2.1389978685110351e-04  2.9261155745372085e-04  3.5994902385331015e-04  3.9384644611978521e-04  3.832