<?xml version="1.0"?>
<VTKFile type="UnstructuredGrid"  version="0.1"  >
<UnstructuredGrid>
<Piece  NumberOfPoints="20201" NumberOfCells="40000">
<Points>
<DataArray  type="Float64"  NumberOfComponents="3"  format="ascii">0 0 0  2 0 0  4 0 0  6 0 0  8 0 0  10 0 0  12 0 0  14 0 0  16 0 0  18 0 0  20 0 0  22 0 0  24 0 0  26 0 0  28 0 0  30 0 0  32 0 0  34 0 0  36 0 0  38 0 0  40 0 0  42 0 0  44 0 0  46 0 0  48 0 0  50 0 0  52 0 0  54 0 0  56 0 0  58 0 0  60 0 0  62 0 0  64 0 0  66 0 0  68 0 0  70 0 0  72 0 0  74 0 0  76 0 0  78 0 0  80 0 0  82 0 0  84 0 0  86 0 0  88 0 0  90 0 0  92 0 0  94 0 0  96 0 0  98 0 0  100 0 0  102 0 0  104 0 0  106 0 0  108 0 0  110 0 0  112 0 0  114 0 0  116 0 0  118 0 0  120 0 0  122 0 0  124 0 0  126 0 0  128 0 0  130 0 0  132 0 0  134 0 0  136 0 0  138 0 0  140 0 0  142 0 0  144 0 0  146 0 0  148 0 0  150 0 0  152 0 0  154 0 0  156 0 0  158 0 0  160 0 0  162 0 0  164 0 0  166 0 0  168 0 0  170 0 0  172 0 0  174 0 0  176 0 0  178 0 0  180 0 0  182 0 0  184 0 0  186 0 0  188 0 0  190 0 0  192 0 0  194 0 0  196 0 0  198 0 0  200 0 0  0 2 0  2 2 0  4 2 0  6 2 0  8 2 0  10 2 0  12 2 0  14 2 0  16 2 0  18 2 0  20 2 0  22 2 0  24 2 0  26 2 0  28 2 0  30 2 0  32 2 0  34 2 0  36 2 0  38 2 0  40 2 0  42 2 0  44 2 0  46 2 0  48 2 0  50 2 0  52 2 0  54 2 0  56 2 0  58 2 0  60 2 0  62 2 0  64 2 0  66 2 0  68 2 0  70 2 0  72 2 0  74 2 0  76 2 0  78 2 0  80 2 0  82 2 0  84 2 0  86 2 0  88 2 0  90 2 0  92 2 0  94 2 0  96 2 0  98 2 0  100 2 0  102 2 0  104 2 0  106 2 0  108 2 0  110 2 0  112 2 0  114 2 0  116 2 0  118 2 0  120 2 0  122 2 0  124 2 0  126 2 0  128 2 0  130 2 0  132 2 0  134 2 0  136 2 0  138 2 0  140 2 0  142 2 0  144 2 0  146 2 0  148 2 0  150 2 0  152 2 0  154 2 0  156 2 0  158 2 0  160 2 0  162 2 0  164 2 0  166 2 0  168 2 0  170 2 0  172 2 0  174 2 0  176 2 0  178 2 0  180 2 0  182 2 0  184 2 0  186 2 0  188 2 0  190 2 0  192 2 0  194 2 0  196 2 0  198 2 0  200 2 0  0 4 0  2 4 0  4 4 0  6 4 0  8 4 0  10 4 0  12 4 0  14 4 0  16 4 0  18 4 0  20 4 0  22 4 0  24 4 0  26 4 0  28 4 0  30 4 0  32 4 0  34 4 0  36 4 0  38 4 0  40 4 0  42 4 0  44 4 0  46 4 0  48 4 0  50 4 0  52 4 0  54 4 0  56 4 0  58 4 0  60 4 0  62 4 0  64 4 0  66 4 0  68 4 0  70 4 0  72 4 0  74 4 0  76 4 0  78 4 0  80 4 0  82 4 0  84 4 0  86 4 0  88 4 0  90 4 0  92 4 0  94 4 0  96 4 0  98 4 0  100 4 0  102 4 0  104 4 0  106 4 0  108 4 0  110 4 0  112 4 0  114 4 0  116 4 0  118 4 0  120 4 0  122 4 0  124 4 0  126 4 0  128 4 0  130 4 0  132 4 0  134 4 0  136 4 0  138 4 0  140 4 0  142 4 0  144 4 0  146 4 0  148 4 0  150 4 0  152 4 0  154 4 0  156 4 0  158 4 0  160 4 0  162 4 0  164 4 0  166 4 0  168 4 0  170 4 0  172 4 0  174 4 0  176 4 0  178 4 0  180 4 0  182 4 0  184 4 0  186 4 0  188 4 0  190 4 0  192 4 0  194 4 0  196 4 0  198 4 0  200 4 0  0 6 0  2 6 0  4 6 0  6 6 0  8 6 0  10 6 0  12 6 0  14 6 0  16 6 0  18 6 0  20 6 0  22 6 0  24 6 0  26 6 0  28 6 0  30 6 0  32 6 0  34 6 0  36 6 0  38 6 0  40 6 0  42 6 0  44 6 0  46 6 0  48 6 0  50 6 0  52 6 0  54 6 0  56 6 0  58 6 0  60 6 0  62 6 0  64 6 0  66 6 0  68 6 0  70 6 0  72 6 0  74 6 0  76 6 0  78 6 0  80 6 0  82 6 0  84 6 0  86 6 0  88 6 0  90 6 0  92 6 0  94 6 0  96 6 0  98 6 0  100 6 0  102 6 0  104 6 0  106 6 0  108 6 0  110 6 0  112 6 0  114 6 0  116 6 0  118 6 0  120 6 0  122 6 0  124 6 0  126 6 0  128 6 0  130 6 0  132 6 0  134 6 0  136 6 0  138 6 0  140 6 0  142 6 0  144 6 0  146 6 0  148 6 0  150 6 0  152 6 0  154 6 0  156 6 0  158 6 0  160 6 0  162 6 0  164 6 0  166 6 0  168 6 0  170 6 0  172 6 0  174 6 0  176 6 0  178 6 0  180 6 0  182 6 0  184 6 0  186 6 0  188 6 0  190 6 0  192 6 0  194 6 0  196 6 0  198 6 0  200 6 0  0 8 0  2 8 0  4 8 0  6 8 0  8 8 0  10 8 0  12 8 0  14 8 0  16 8 0  18 8 0  20 8 0  22 8 0  24 8 0  26 8 0  28 8 0  30 8 0  32 8 0  34 8 0  36 8 0  38 8 0  40 8 0  42 8 0  44 8 0  46 8 0  48 8 0  50 8 0  52 8 0  54 8 0  56 8 0  58 8 0  60 8 0  62 8 0  64 8 0  66 8 0  68 8 0  70 8 0  72 8 0  74 8 0  76 8 0  78 8 0  80 8 0  82 8 0  84 8 0  86 8 0  88 8 0  90 8 0  92 8 0  94 8 0  96 8 0  98 8 0  100 8 0  102 8 0  104 8 0  106 8 0  108 8 0  110 8 0  112 8 0  114 8 0  116 8 0  118 8 0  120 8 0  122 8 0  124 8 0  126 8 0  128 8 0  130 8 0  132 8 0  134 8 0  136 8 0  138 8 0  140 8 0  142 8 0  144 8 0  146 8 0  148 8 0  150 8 0  152 8 0  154 8 0  156 8 0  158 8 0  160 8 0  162 8 0  164 8 0  166 8 0  168 8 0  170 8 0  172 8 0  174 8 0  176 8 0  178 8 0  180 8 0  182 8 0  184 8 0  186 8 0  188 8 0  190 8 0  192 8 0  194 8 0  196 8 0  198 8 0  200 8 0  0 10 0  2 10 0  4 10 0  6 10 0  8 10 0  10 10 0  12 10 0  14 10 0  16 10 0  18 10 0  20 10 0  22 10 0  24 10 0  26 10 0  28 10 0  30 10 0  32 10 0  34 10 0  36 10 0  38 10 0  40 10 0  42 10 0  44 10 0  46 10 0  48 10 0  50 10 0  52 10 0  54 10 0  56 10 0  58 10 0  60 10 0  62 10 0  64 10 0  66 10 0  68 10 0  70 10 0  72 10 0  74 10 0  76 10 0  78 10 0  80 10 0  82 10 0  84 10 0  86 10 0  88 10 0  90 10 0  92 10 0  94 10 0  96 10 0  98 10 0  100 10 0  102 10 0  104 10 0  106 10 0  108 10 0  110 10 0  112 10 0  114 10 0  116 10 0  118 10 0  120 10 0  122 10 0  124 10 0  126 10 0  128 10 0  130 10 0  132 10 0  134 10 0  136 10 0  138 10 0  140 10 0  142 10 0  144 10 0  146 10 0  148 10 0  150 10 0  152 10 0  154 10 0  156 10 0  158 10 0  160 10 0  162 10 0  164 10 0  166 10 0  168 10 0  170 10 0  172 10 0  174 10 0  176 10 0  178 10 0  180 10 0  182 10 0  184 10 0  186 10 0  188 10 0  190 10 0  192 10 0  194 10 0  196 10 0  198 10 0  200 10 0  0 12 0  2 12 0  4 12 0  6 12 0  8 12 0  10 12 0  12 12 0  14 12 0  16 12 0  18 12 0  20 12 0  22 12 0  24 12 0  26 12 0  28 12 0  30 12 0  32 12 0  34 12 0  36 12 0  38 12 0  40 12 0  42 12 0  44 12 0  46 12 0  48 12 0  50 12 0  52 12 0  54 12 0  56 12 0  58 12 0  60 12 0  62 12 0  64 12 0  66 12 0  68 12 0  70 12 0  72 12 0  74 12 0  76 12 0  78 12 0  80 12 0  82 12 0  84 12 0  86 12 0  88 12 0  90 12 0  92 12 0  94 12 0  96 12 0  98 12 0  100 12 0  102 12 0  104 12 0  106 12 0  108 12 0  110 12 0  112 12 0  114 12 0  116 12 0  118 12 0  120 12 0  122 12 0  124 12 0  126 12 0  128 12 0  130 12 0  132 12 0  134 12 0  136 12 0  138 12 0  140 12 0  142 12 0  144 12 0  146 12 0  148 12 0  150 12 0  152 12 0  154 12 0  156 12 0  158 12 0  160 12 0  162 12 0  164 12 0  166 12 0  168 12 0  170 12 0  172 12 0  174 12 0  176 12 0  178 12 0  180 12 0  182 12 0  184 12 0  186 12 0  188 12 0  190 12 0  192 12 0  194 12 0  196 12 0  198 12 0  200 12 0  0 14 0  2 14 0  4 14 0  6 14 0  8 14 0  10 14 0  12 14 0  14 14 0  16 14 0  18 14 0  20 14 0  22 14 0  24 14 0  26 14 0  28 14 0  30 14 0  32 14 0  34 14 0  36 14 0  38 14 0  40 14 0  42 14 0  44 14 0  46 14 0  48 14 0  50 14 0  52 14 0  54 14 0  56 14 0  58 14 0  60 14 0  62 14 0  64 14 0  66 14 0  68 14 0  70 14 0  72 14 0  74 14 0  76 14 0  78 14 0  80 14 0  82 14 0  84 14 0  86 14 0  88 14 0  90 14 0  92 14 0  94 14 0  96 14 0  98 14 0  100 14 0  102 14 0  104 14 0  106 14 0  108 14 0  110 14 0  112 14 0  114 14 0  116 14 0  118 14 0  120 14 0  122 14 0  124 14 0  126 14 0  128 14 0  130 14 0  132 14 0  134 14 0  136 14 0  138 14 0  140 14 0  142 14 0  144 14 0  146 14 0  148 14 0  150 14 0  152 14 0  154 14 0  156 14 0  158 14 0  160 14 0  162 14 0  164 14 0  166 14 0  168 14 0  170 14 0  172 14 0  174 14 0  176 14 0  178 14 0  180 14 0  182 14 0  184 14 0  186 14 0  188 14 0  190 14 0  192 14 0  194 14 0  196 14 0  198 14 0  200 14 0  0 16 0  2 16 0  4 16 0  6 16 0  8 16 0  10 16 0  12 16 0  14 16 0  16 16 0  18 16 0  20 16 0  22 16 0  24 16 0  26 16 0  28 16 0  30 16 0  32 16 0  34 16 0  36 16 0  38 16 0  40 16 0  42 16 0  44 16 0  46 16 0  48 16 0  50 16 0  52 16 0  54 16 0  56 16 0  58 16 0  60 16 0  62 16 0  64 16 0  66 16 0  68 16 0  70 16 0  72 16 0  74 16 0  76 16 0  78 16 0  80 16 0  82 16 0  84 16 0  86 16 0  88 16 0  90 16 0  92 16 0  94 16 0  96 16 0  98 16 0  100 16 0  102 16 0  104 16 0  106 16 0  108 16 0  110 16 0  112 16 0  114 16 0  116 16 0  118 16 0  120 16 0  122 16 0  124 16 0  126 16 0  128 16 0  130 16 0  132 16 0  134 16 0  136 16 0  138 16 0  140 16 0  142 16 0  144 16 0  146 16 0  148 16 0  150 16 0  152 16 0  154 16 0  156 16 0  158 16 0  160 16 0  162 16 0  164 16 0  166 16 0  168 16 0  170 16 0  172 16 0  174 16 0  176 16 0  178 16 0  180 16 0  182 16 0  184 16 0  186 16 0  188 16 0  190 16 0  192 16 0  194 16 0  196 16 0  198 16 0  200 16 0  0 18 0  2 18 0  4 18 0  6 18 0  8 18 0  10 18 0  12 18 0  14 18 0  16 18 0  18 18 0  20 18 0  22 18 0  24 18 0  26 18 0  28 18 0  30 18 0  32 18 0  34 18 0  36 18 0  38 18 0  40 18 0  42 18 0  44 18 0  46 18 0  48 18 0  50 18 0  52 18 0  54 18 0  56 18 0  58 18 0  60 18 0  62 18 0  64 18 0  66 18 0  68 18 0  70 18 0  72 18 0  74 18 0  76 18 0  78 18 0  80 18 0  82 18 0  84 18 0  86 18 0  88 18 0  90 18 0  92 18 0  94 18 0  96 18 0  98 18 0  100 18 0  102 18 0  104 18 0  106 18 0  108 18 0  110 18 0  112 18 0  114 18 0  116 18 0  118 18 0  120 18 0  122 18 0  124 18 0  126 18 0  128 18 0  130 18 0  132 18 0  134 18 0  136 18 0  138 18 0  140 18 0  142 18 0  144 18 0  146 18 0  148 18 0  150 18 0  152 18 0  154 18 0  156 18 0  158 18 0  160 18 0  162 18 0  164 18 0  166 18 0  168 18 0  170 18 0  172 18 0  174 18 0  176 18 0  178 18 0  180 18 0  182 18 0  184 18 0  186 18 0  188 18 0  190 18 0  192 18 0  194 18 0  196 18 0  198 18 0  200 18 0  0 20 0  2 20 0  4 20 0  6 20 0  8 20 0  10 20 0  12 20 0  14 20 0  16 20 0  18 20 0  20 20 0  22 20 0  24 20 0  26 20 0  28 20 0  30 20 0  32 20 0  34 20 0  36 20 0  38 20 0  40 20 0  42 20 0  44 20 0  46 20 0  48 20 0  50 20 0  52 20 0  54 20 0  56 20 0  58 20 0  60 20 0  62 20 0  64 20 0  66 20 0  68 20 0  70 20 0  72 20 0  74 20 0  76 20 0  78 20 0  80 20 0  82 20 0  84 20 0  86 20 0  88 20 0  90 20 0  92 20 0  94 20 0  96 20 0  98 20 0  100 20 0  102 20 0  104 20 0  106 20 0  108 20 0  110 20 0  112 20 0  114 20 0  116 20 0  118 20 0  120 20 0  122 20 0  124 20 0  126 20 0  128 20 0  130 20 0  132 20 0  134 20 0  136 20 0  138 20 0  140 20 0  142 20 0  144 20 0  146 20 0  148 20 0  150 20 0  152 20 0  154 20 0  156 20 0
[...]
<PointData  Scalars="f_271-5"> 
<DataArray  type="Float64"  Name="f_271-5"  format="ascii">4.5402448017507469e-11  4.3957339654304115e-11  4.0028088806797529e-11  3.4696968140654181e-11  2.9371018430475677e-11  2.5351626087520556e-11  2.3470798396134371e-11  2.3892867821763470e-11  2.6117787760448513e-11  2.9168907610879342e-11  3.1904077786541302e-11  3.3352820210253452e-11  3.2969932367975622e-11  3.0726697990412648e-11  2.7029335648789132e-11  2.2524219447176675e-11  1.7881554232206351e-11  1.3633065365539754e-11  1.0096310603602582e-11  7.3783704413659607e-12  5.4306727932882120e-12  4.1229565561877036e-12  3.3097764567059003e-12  2.8723237717169086e-12  2.7303030578393110e-12  2.8317721054993368e-12  3.1396705929171639e-12  3.6380635814914444e-12  4.3771294597305133e-12  5.5655420260583244e-12  7.7055799564168321e-12  1.1750007740958264e-11  1.9233079933461661e-11  3.2280981983054884e-11  5.3347883153026437e-11  8.4508462771970098e-11  1.2627089982003856e-10  1.7622630106967714e-10  2.2829655231928795e-10  2.7349702577127522e-10  3.0268153280528123e-10  3.1152863146936885e-10  3.1416159249233430e-10  4.2299652349262992e-10  1.4225161709753771e-09  8.9460938025325735e-09  6.3936580510214568e-08  4.6575455838381526e-07  3.4160063501920007e-06  2.5221467643956075e-05  1.8778251876986393e-04  1.4130927354804206e-03  1.0749528455941702e-02  8.0497721796633656e-02  4.2467692005890972e-01  8.5561753538141716e-01  9.6998849627525485e-01  9.9253745181639064e-01  9.9723995809522348e-01  9.9591763421302204e-01  9.8168590605147943e-01  8.8876774910204137e-01  4.3120184157205660e-01  2.3073107989166453e-02  -9.6892623947127153e-04  5.4356613191540227e-05  -3.1509913431208208e-06  1.8392534539078183e-07  -1.0760159249987381e-08  6.3011027697215946e-10  -3.6879516358799101e-11  2.1628128301831947e-12  4.6203791488538969e-13  5.4019364116782880e-12  1.2227372625845617e-11  1.5046299210366575e-11  1.4982730917153580e-11  1.3540083333211800e-11  1.1525617256711943e-11  9.4358746511391215e-12  7.5912234883934557e-12  6.1618891374147253e-12  5.1868532714497098e-12  4.6091374248144155e-12  4.3199449004902377e-12  4.1971122531068590e-12  4.1260754811156305e-12  3.9961487911121235e-12  3.6653878339245990e-12  2.8884413103121393e-12  1.4157382401844931e-12  1.8637332543811315e-13  2.8852006759897147e-15  1.0966600022855880e-16  -2.1963808511072748e-18  2.8284313980471187e-19  -1.2991335651278619e-20  2.4589542951967790e-21  -1.2157543219686666e-22  -5.3203735891738807e-23  -9.8977217068155879e-23  4.4079267793455226e-11  4.2688399369981903e-11  3.8905617380610881e-11  3.3770236671200441e-11  2.8634387689733117e-11  2.4750121879366530e-11  2.2919806062139282e-11  2.3304860063275980e-11  2.5428071554504085e-11  2.8353352172466476e-11  3.0984230439546127e-11  3.2387657091907452e-11  3.2037897337409648e-11  2.9904770698167200e-11  2.6375981517658281e-11  2.2070310160595587e-11  1.7629573332391382e-11  1.3562223556024303e-11  1.0170435206994253e-11  7.5540649206537740e-12  5.6642655206003280e-12  4.3755701008092982e-12  3.5503906868743612e-12  3.0791134416263838e-12  2.8908147814242120e-12  2.9425338943581357e-12  3.2055024410843515e-12  3.6707673554621464e-12  4.3926316902785714e-12  5.5782012164601766e-12  7.7183779894249799e-12  1.1739784530466842e-11  1.9131141751903667e-11  3.1952109809040276e-11  5.2575807246172689e-11  8.3002333367094698e-11  1.2371022410980996e-10  1.7235271992521881e-10  2.2303465771149371e-10  2.6705255289946524e-10  2.9554626393970695e-10  3.0430626368007401e-10  3.0683807709679408e-10  4.1057129785206528e-10  1.3623472830906917e-09  8.5020827223333444e-09  6.0445586808432072e-08  4.3783600073982288e-07  3.1892031839257017e-06  2.3342793398034775e-05  1.7181203177715494e-04  1.2725602246898373e-03  9.4489113755519792e-03  6.8328707929243532e-02  3.7292600300227663e-01  8.2637463307070080e-01  9.6208183717598983e-01  9.8981183289809849e-01  9.9582382772633260e-01  9.9437104393684672e-01  9.7801153151116915e-01  8.7450773183018160e-01  3.9981558368944847e-01  2.0154079383592156e-02  -8.2781823866155332e-04  4.5856198353966067e-05  -2.6294770378718489e-06  1.5189228588231247e-07  -8.8009113461376716e-09  5.1141111089419649e-10  -2.9810839922443480e-11  1.7598341576172976e-12  6.2069925509862259e-13  5.7432760766337644e-12  1.2116291221405131e-11  1.4665258238281452e-11  1.4577745561848191e-11  1.3209934104288716e-11  1.1311334309898086e-11  9.3535464232147809e-12  7.6416863914816228e-12  6.3348070001081175e-12  5.4633539274263691e-12  4.9639336908970251e-12  4.7234586878423156e-12  4.6181394350893025e-12  4.5354139370956604e-12  4.3715141362117783e-12  3.9983163589629614e-12  3.1924042809139791e-12  1.6834027545674743e-12  2.7265943927350346e-13  7.1980036796901417e-15  2.1100862627299069e-16  4.7578953247071672e-18  2.4048219101149174e-20  4.6850936104988465e-21  -1.6694494552163773e-20  -3.2341322079440151e-21  -9.6333878298480303e-22  -3.0344841205955719e-22  4.0356667478875767e-11  3.9119064704636854e-11  3.5751100627967818e-11  3.1172960611758706e-11  2.6583822422434243e-11  2.3097090476030400e-11  2.1429924665540824e-11  2.1731995151345922e-11  2.3585964324881163e-11  2.6165998772726623e-11  2.8502076128555478e-11  2.9767002695647572e-11  2.9492941229945972e-11  2.7650338683034737e-11  2.4579668475287834e-11  2.0825585215193452e-11  1.6951309492016004e-11  1.3398760675835919e-11  1.0424042198932926e-11  8.1031570004604050e-12  6.3832815548431545e-12  5.1504079875665676e-12  4.2886197355303551e-12  3.7152579704033950e-12  3.3878830582630481e-12  3.2912386649997790e-12  3.4219266199964582e-12  3.7917361290146059e-12  4.4664296896702580e-12  5.6472547765427683e-12  7.7905028633633363e-12  1.1745793506772853e-11  1.8869889617172799e-11  3.1031656766595256e-11  5.0373559949824972e-11  7.8685097176927634e-11  1.1636312142259026e-10  1.6124009257355988e-10  2.0794246147922525e-10  2.4856679328665505e-10  2.7506890542988457e-10  2.8356937768985667e-10  2.8588163731017937e-10  3.7576450936661533e-10  1.1976149578646888e-09  7.2994482512925494e-09  5.1079634537190519e-08  3.6377095657687698e-07  2.5958546594545991e-06  1.8514823803603786e-05  1.3175252135946220e-04  9.3176394576837004e-04  6.4767187102138029e-03  4.2742496087832628e-02  2.4167393473632673e-01  7.0483560463318784e-01  9.2643438568945102e-01  9.7661363478482510e-01  9.8852250568401179e-01  9.8631821986418988e-01  9.6031576294498222e-01  8.1191549839852029e-01  3.0595667546786187e-01  1.4426316265962462e-02  -5.3143991539103498e-04  2.8158978446167137e-05  -1.5481381397844393e-06  8.4933258344657355e-08  -4.5917552786983593e-09  2.4180973918234804e-10  -1.2144947842961854e-11  6.0918574348199189e-13  1.2487178744445290e-12  6.5935994294740432e-12  1.1677125502998388e-11  1.3579178335279511e-11  1.3451231413296189e-11  1.2297681614761818e-11  1.0726465115236820e-11  9.1437371508196899e-12  7.8124187032355287e-12  6.8592343288650233e-12  6.2887865949839363e-12  6.0174309902873696e-12  5.9180565064557084e-12  5.8611617668524227e-12  5.7397879988885841e-12  5.4705424742952014e-12  4.9653587272521247e-12  4.0671564566702538e-12  2.5123553515465355e-12  6.7652023657588927e-13  4.1830955107873651e-14  1.5065335059454255e-15  3.4965626334996314e-17  7.1750074125643253e-18  7.5693146001562025e-19  3.8588821297227120e-19  1.5336693509761904e-19  8.0147974180374116e-20  6.1328743078444116e-20  3.4904622179584578e-11  3.3893753813326333e-11  3.1142309179542554e-11  2.7401111582032286e-11  2.3649858835089399e-11  2.0799300686086811e-11  1.9436272961789917e-11  1.9682407214420330e-11  2.1194703875698495e-11  2.3296927565035673e-11  2.5197805416135370e-11  2.6226670216219968e-11  2.6009836952090748e-11  2.4533065184314000e-11  2.2082554022288812e-11  1.9105350216297736e-11  1.6053793733253909e-11  1.3269449212511592e-11  1.0932598244571511e-11  9.0735331098935565e-12  7.6237116854031046e-12  6.4795674943594520e-12  5.5554960156246437e-12  4.8115989258298815e-12  4.2536277452047995e-12  3.9143499449312631e-12  3.8337350143239512e-12  4.0572453146007108e-12  4.6668954523436527e-12  5.8508517381400872e-12  8.0067381549159207e-12  1.1860951506600087e-11  1.8565558411363257e-11  2.9699550196252946e-11  4.7060546068905872e-11  7.2128392530108999e-11  1.0518652539053224e-10  1.4434357312317144e-10  1.8500986441116162e-10  2.2047874490912143e-10  2.4393156070595117e-10  2.5201500304183499e-10  2.5419445567131003e-10  3.2520678034800691e-10  9.6894755511256296e-10  5.6656630124402035e-09  3.8595455006454026e-08  2.6723425832454351e-07  1.8436113251960260e-06  1.2606697363398853e-05  8.4980111182157762e-05  5.5950379463761573e-04  3.5364326620357625e-03  2.0882484032852904e-02  1.0960185076136936e-01  4.2459661044677466e-01  7.9205961459185681e-01  9.2464663968316274e-01  9.5655544975185891e-01  9.5119553019844771e-01  8.8826222008899514e-01  6.1587974362098696e-01  1.7179391295079408e-01  1.0867753867531894e-02  -2.8741186734775027e-04  1.5213331685031329e-05  -8.7283278009364631e-07  5.1860134935482760e-08  -3.1649072313467723e-09  1.9850966300452622e-10  -1.2713765694372713e-11  1.0488957359725965e-12  2.5893555388218128e-12  7.4486394354756169e-12  1.0773243304652969e-11  1.1975384343988953e-11  1.1844906480043757e-11  1.1011925252776883e-11  9.9229099482637876e-12  8.8998312640882227e-12  8.1456049954521982e-12  7.7369040049735335e-12  7.6350521266259736e-12  7.7202281801869962e-12  7.8390457240630998e-12  7.8503496592647966e-12  7.6554120767912737e-12  7.2035353432635796e-12  6.4688127967509196e-12  5.3956178819757449e-12  3.8304058331067049e-12  1.7438211180589586e-12  2.8941672355581775e-13  1.5128236231148352e-14  1.3994210844279082e-15  1.0600276498876275e-16  5.0919131147999043e-18  -5.1388596700837131e-18  -4.0556724136205554e-18  -2.8860673316370825e-18  -2.5002545101665978e-18  2.8630402010257410e-11  2.7885282073807045e-11  2.5861680735859135e-11  2.3124602712844885e-11  2.0409237808151387e-11  1.8393770471306897e-11  1.7504866816161764e-11  1.7811839488863745e-11  1.9032311388853393e-11  2.0639773269989271e-11  2.2036110853034882e-11  2.2732879272484774e-11  2.2481518688621016e-11  2.1311864442452272e-11  1.9475576621989785e-11  1.7328508727070033e-11  1.5204346916900132e-11  1.3324781641803197e-11  1.1767967893970466e-11  1.0491716033499958e-11  9.3907723052255771e-12  8.3614210742151231e-12  7.3499620801139705e-12  6.3716093657778116e-12  5.4994903215961892e-12  4.8353580475233778e-12  4.4804410700611692e-12  4.5248160525847785e-12  5.0679378208358519e-12  6.2743495834196202e-12  8.4593324564757400e-12  1.2188452402272164e-11  1.8357968429171030e-11  2.8195685323301617e-11  4.3091867509813366e-11  6.4170665858386789e-11  9.1598835260871160e-11  1.2382861800663581e-10  1.5720665461001196e-10  1.8644370992771350e-10  2.0617941742810854e-10  2.1373548980538293e-10  2.1608931216400245e-10  2.6768019656914621e-10  7.2561776881021072e-10  3.9826606454082544e-09  2.6094604017514463e-08  1.7373756048355958e-07  1.1443496845055614e-06  7.3922633733048526e-06  4.6404818333837080e-05  2.7932027327208465e-04  1.5829175717257478e-03  8.2389886672491093e-03  3.7942090523575354e-02  1.4838825084968879e-01  4.2030531895313517e-01  6.9072160451914211e-01  7.9392220756985366e-01  7.7364489835928096e-01  5.9859171349077922e-01  2.6817513021377598e-01  6.6923564193821616e-02  8.2642187350694118e-03  3.5062522720918095e-05  -9.8456713755311016e-07  1.3312580903749449e-07  -1.2267091402568033e-08  1.0339511194530793e-09  -8.6113678702314937e-11  6.7478439060987278e-12  2.4027765986116287e-12  5.4245757681905529e-12  7.8949036406625137e-12  9.5186815971088694e-12  1.0164376695707980e-11  1.0085809289561076e-11  9.6234717695372312e-12  9.0897574369268127e-12  8.7254948445371593e-12  8.6670026405952400e-12  8.9285274332063448e-12  9.4120879745359603e-12  9.9449037790040044e-12  1.0333492194224828e-11  1.0417803818672512e-11  1.0108946329238570e-11  9.3992297969171213e-12  8.3408223280737217e-12  6.9958373981916720e-12  5.3697851301506415e-12  3.3962945257627797e-12  1.3416338808287658e-12  2.4063097694998178e-13  2.2836732894532296e-14  2.4372140306539295e-15  5.2998785842823296e-16  2.3829501304714210e-16  1.3785449321577547e-16  9.3966646566558025e-17  8.1378719561319097e-17  2.2445524954619152e-11  2.1970478344419606e-11  2.0694093873337235e-11  1.9010905593074418e-11  1.7426452330830028e-11  1.6390598515900477e-11  1.6157434554919866e-11  1.6715408844323666e-11  1.7804965458452979e-11  1.9013312568056201e-11  1.9912912343414513e-11  2.0196438900679168e-11  1.9761981509579267e-11  1.8721075320241612e-11  1.7332820448544680e-11  1.5895781645145029e-11  1.4642052387533422e-11  1.3670932853678587e-11  1.2939662950956610e-11  1.2306105571726113e-11  1.1601367028175854e-11  1.0703153209826641e-11  9.5841363028053159e-12  8.3218514415805916e-12  7.0726921462691217e-12  6.0258755297530893e-12  5.3589528674259348e-12  5.2138803781036534e-12  5.7048890751489436e-12  6.9603881552928062e-12  9.1929366721620846e-12  1.2782583216066106e-11  1.8345674361513187e-11  2.6741123854191144e-11  3.8946277891250612e-11  5.5739796651978555e-11  7.7196685319553889e-11  1.0214590729287411e-10  1.2790334359491842e-10  1.5062761521473526e-10  1.6645493114801773e-10  1.7346069591658328e-10  1.7643535861610520e-10  2.1168031662831415e-10  5.0863530614171406e-10  2.5456052622098745e-09  1.5811940812396457e-08  1.0012755456272390e-07  6.2252133307215594e-07  3.7519717523693452e-06  2.1656840014921429e-05  1.1791771434734086e-04  5.9433557400269388e-04  2.7090465870626989e-03  1.0928451818611622e-02  3.7607025247680059e-02  1.0618519434640904e-01  2.2206891789855229e-01  3.0827461570936160e-01  2.8613625469433335e-01  1.7304119099956389e-01  6.8808838342684683e-02  2.0867669206203070e-02  4.2404983381961227e-03  3.4777357340816330e-04  -1.3756407652473372e-07  2.9220939309953814e-07  -6.2900782517149734e-09  1.0347242791077055e-09  1.0007362092127130e-10  5.3884068877765940e-11  2.2517592486306290e-11  1.0484960475137390e-11  8.1332439003235993e-12  8.2511011163381254e-12  8.4934407911179465e-12  8.4905161149149084e-12  8.3805482454985615e-12  8.3856108765879444e-12  8.6824352437708384e-12  9.3442346139804351e-12  1.0317309853287057e-11  1.1432791701213856e-11  1.2451028899421986e-11  1.3126491702484375e-11  1.3273886969841445e-11  1.2815107616464619e-11  1.1792551197397008e-11  1.0344947002731427e-11  8.6526779961142580e-12  6.8677441976794857e-12  5.0549240182462540e-12  3.2059988916743670e-12  1.5057200877556538e-12  4.7026729334290085e-13  1.1632594637864488e-13  2.6687763224717382e-14  5.8120254666718652e-15  9.9265075088382174e-16  -8.5855393734480747e-17  -2.7021698860803085e-16  1.7062954590955110e-11  1.6834416180704049e-11  1.6249259070984754e-11  1.5569105206643535e-11  1.5113711680703528e-11  1.5135745110864906e-11  1.5721185687897069e-11  1.6751345037938921e-11  1.7939112514011153e-11  1.8925964940866499e-11  1.9405028362360177e-11  1.9225565808076269e-11  1.8440417126195609e-11  1.7279567027821903e-11  1.6061815088665918e-11  1.5079601329934242e-11  1.4499686247659368e-11  1.4313368132298611e-11  1.4350218015287631e-11  1.4346993534397679e-11  1.4045280857595407e-11  1.3282803956972407e-11  1.2047539660841185e-11  1.0479715612179851e-11  8.8276067933209220e-12  7.3791865155485190e-12  6.3967287716735429e-12  6.0758386334622056e-12  6.5396462054919487e-12  7.8687294344638883e-12  1.0159788177798045e-11  1.3599201214401090e-11  1.8527751959898676e-11  2.5458844950436605e-11  3.5000865993033974e-11  4.7642483723140629e-11  6.3410572486141191e-11  8.1509412094633787e-11  1.0015307787077974e-10  1.1681745631801827e-10  1.2900678177266636e-10  1.3555054991846745e-10  1.3960929143147132e-10  1.6346168807571341e-10  3.4089246286356109e-10  1.4930759059568819e-09  8.6167796592224008e-09  5.1300686593254732e-08  2.9806450107522699e-07  1.6601457479370902e-06  8.7394790808697820e-06  4.2799122075891477e-05  1.9144674058813889e-04  7.6800691263390010e-04  2.6970909341602262e-03  8.0732070463292900e-03  1.9656665116833123e-02  3.6955901201164432e-02  5.0538040539815463e-02  4.7061838443917155e-02  3.0282823949665506e-02  1.4435363417149889e-02  5.2651863741701938e-03  1.4804555702630569e-03  2.7570372765322432e-04  2.5412330061110343e-05  1.1644831012053522e-06  9.3473725537020042e-08  1.0192206864410216e-08  1.7490718911864131e-09  3.3822021498843139e-10  6.8963848193608846e-11  1.7401873020666560e-11  8.4936678308222590e-12  7.2831636702069435e-12  7.2246582087958317e-12  7.2755924399982748e-12  7.4386865318986355e-12  7.8872764472048657e-12  8.7563148317625442e-12  1.0066577488075281e-11  1.1698684133866715e-11  1.3409369470294406e-11  1.4886047307399123e-11  1.5825748616464345e-11  1.6015406413185431e-11  1.5388403983335087e-11  1.4039421617471038e-11  1.2193372213941784e-11  1.0138745729105762e-11  8.1454523263324263e-12  6.3902595862915853e-12  4.9126605347430520e-12  3.6243542799488456e-12  2.4339071283165468e-12  1.4171451535782045e-12  7.2888589479720368e-13  3.7604511467154323e-13  2.1900726112213263e-13  1.5327102475347251e-13  1.3507074890913214e-13  1.2880703701128359e-11  1.2857587675181767e-11  1.2858326718336374e-11  1.3058368146967158e-11  1.3649185589308415e-11  1.4732888583527200e-11  1.6245908902406419e-11  1.7945479860264856e-11  1.9468680604293577e-11  2.0445958991314175e-11  2.0628648600444754e-11  1.9981884366061468e-11  1.8705530468118198e-11  1.7173116605482666e-11  1.5810516266300545e-11  1.4957920627715989e-11  1.4762415008858465e-11  1.5135548127872152e-11  1.5787837539926893e-11  1.6327535525569380e-11  1.6390293727844734e-11  1.5755940243812430e-11  1.4413882315529484e-11  1.2559363231144687e-11  1.0529918866818252e-11  8.7116173191255819e-12  7.4495289854657180e-12  6.9878853977711099e-12  7.4509987237070227e-12  8.8640727377472395e-12  1.1205762614591318e-11  1.4478923977370000e-11  1.8778704940910205e-11  2.4327634522233393e-11  3.1441420714712202e-11  4.0398711115405631e-11  5.1225559245539236e-11  6.3469868222474571e-11  7.6102411668919187e-11  8.7683764971091146e-11  9.6850850493236380e-11  1.0312002292556231e-10  1.0863060950894687e-10  1.2615068105392266e-10  2.2669546611382378e-10  8.2085812457539467e-10  4.2567543454271644e-09  2.3483698084474642e-08  1.2637294943542424e-07  6.4611890250379879e-07  3.0882475109002183e-06  1.3583295162101819e-05  5.4096142228375031e-05  1.9140735875020686e-04  5.8887897700404378e-04  1.5280854591077089e-03  3.2329192898589575e-03  5.3839216619962927e-03  6.8401283605383483e-03  6.5493081742455427e-03  4.7309492467322266e-03  2.6189856770649934e-03  1.1412467747997494e-03  3.9510924830538216e-04  1.0654571790215410e-04  2.0514201790164372e-05  2.6306831265351847e-06  2.7789203070299024e-07  3.3687306196102150e-08  4.6188052052028782e-09  7.0010926325179638e-10  1.1507043372256247e-10  2.3398716295462792e-11  8.9107011313539295e-12  6.7349107741255748e-12  6.4546606199044590e-12  6.5087536007731002e-12  6.8292434963883025e-12  7.5740445477712763e-12  8.8573146361593149e-12  1.0661827762223478e-11  1.2812541124190222e-11  1.4998994366102350e-11  1.6841437357888745e-11  1.7984398515293621e-11  1.8190561876099471e-11  1.7405390076448897e-11  1.5771637707815532e-11  1.3589557678002954e-11  1.1236066218266753e-11  9.0675276618960948e-12  7.3331110196296598e-12  6.1202508058788178e-12  5.3459002241482243e-12  4.7997108999558194e-12  4.2475142506622619e-12  3.5879956413740580e-12  2.9162188881980940e-12  2.3763055327016047e-12  2.0416610902535641e-12  1.9297783929205842e-12  9.9701418735228017e-12  1.0104190843015314e-11  1.0562482932706032e-11  1.1477942216306051e-11  1.2969927446901146e-11  1.5040324418842322e-11  1.7504576205158020e-11  1.9993670805373704e-11  2.2036262398816211e-11  2.3198028910702839e-11  2.3229298381608259e-11  2.2163418367469794e-11  2.0323809784803532e-11  1.8232449553850140e-11  1.6450869237600816e-11  1.5408884671253646e-11  1.5277593302736066e-11  1.5925372807753850e-11  1.6968284136162232e-11  1.7897592380912375e-11  1