<?xml version="1.0"?>
<VTKFile type="UnstructuredGrid"  version="0.1"  >
<UnstructuredGrid>
<Piece  NumberOfPoints="20201" NumberOfCells="40000">
<Points>
<DataArray  type="Float64"  NumberOfComponents="3"  format="ascii">0 0 0  2 0 0  4 0 0  6 0 0  8 0 0  10 0 0  12 0 0  14 0 0  16 0 0  18 0 0  20 0 0  22 0 0  24 0 0  26 0 0  28 0 0  30 0 0  32 0 0  34 0 0  36 0 0  38 0 0  40 0 0  42 0 0  44 0 0  46 0 0  48 0 0  50 0 0  52 0 0  54 0 0  56 0 0  58 0 0  60 0 0  62 0 0  64 0 0  66 0 0  68 0 0  70 0 0  72 0 0  74 0 0  76 0 0  78 0 0  80 0 0  82 0 0  84 0 0  86 0 0  88 0 0  90 0 0  92 0 0  94 0 0  96 0 0  98 0 0  100 0 0  102 0 0  104 0 0  106 0 0  108 0 0  110 0 0  112 0 0  114 0 0  116 0 0  118 0 0  120 0 0  122 0 0  124 0 0  126 0 0  128 0 0  130 0 0  132 0 0  134 0 0  136 0 0  138 0 0  140 0 0  142 0 0  144 0 0  146 0 0  148 0 0  150 0 0  152 0 0  154 0 0  156 0 0  158 0 0  160 0 0  162 0 0  164 0 0  166 0 0  168 0 0  170 0 0  172 0 0  174 0 0  176 0 0  178 0 0  180 0 0  182 0 0  184 0 0  186 0 0  188 0 0  190 0 0  192 0 0  194 0 0  196 0 0  198 0 0  200 0 0  0 2 0  2 2 0  4 2 0  6 2 0  8 2 0  10 2 0  12 2 0  14 2 0  16 2 0  18 2 0  20 2 0  22 2 0  24 2 0  26 2 0  28 2 0  30 2 0  32 2 0  34 2 0  36 2 0  38 2 0  40 2 0  42 2 0  44 2 0  46 2 0  48 2 0  50 2 0  52 2 0  54 2 0  56 2 0  58 2 0  60 2 0  62 2 0  64 2 0  66 2 0  68 2 0  70 2 0  72 2 0  74 2 0  76 2 0  78 2 0  80 2 0  82 2 0  84 2 0  86 2 0  88 2 0  90 2 0  92 2 0  94 2 0  96 2 0  98 2 0  100 2 0  102 2 0  104 2 0  106 2 0  108 2 0  110 2 0  112 2 0  114 2 0  116 2 0  118 2 0  120 2 0  122 2 0  124 2 0  126 2 0  128 2 0  130 2 0  132 2 0  134 2 0  136 2 0  138 2 0  140 2 0  142 2 0  144 2 0  146 2 0  148 2 0  150 2 0  152 2 0  154 2 0  156 2 0  158 2 0  160 2 0  162 2 0  164 2 0  166 2 0  168 2 0  170 2 0  172 2 0  174 2 0  176 2 0  178 2 0  180 2 0  182 2 0  184 2 0  186 2 0  188 2 0  190 2 0  192 2 0  194 2 0  196 2 0  198 2 0  200 2 0  0 4 0  2 4 0  4 4 0  6 4 0  8 4 0  10 4 0  12 4 0  14 4 0  16 4 0  18 4 0  20 4 0  22 4 0  24 4 0  26 4 0  28 4 0  30 4 0  32 4 0  34 4 0  36 4 0  38 4 0  40 4 0  42 4 0  44 4 0  46 4 0  48 4 0  50 4 0  52 4 0  54 4 0  56 4 0  58 4 0  60 4 0  62 4 0  64 4 0  66 4 0  68 4 0  70 4 0  72 4 0  74 4 0  76 4 0  78 4 0  80 4 0  82 4 0  84 4 0  86 4 0  88 4 0  90 4 0  92 4 0  94 4 0  96 4 0  98 4 0  100 4 0  102 4 0  104 4 0  106 4 0  108 4 0  110 4 0  112 4 0  114 4 0  116 4 0  118 4 0  120 4 0  122 4 0  124 4 0  126 4 0  128 4 0  130 4 0  132 4 0  134 4 0  136 4 0  138 4 0  140 4 0  142 4 0  144 4 0  146 4 0  148 4 0  150 4 0  152 4 0  154 4 0  156 4 0  158 4 0  160 4 0  162 4 0  164 4 0  166 4 0  168 4 0  170 4 0  172 4 0  174 4 0  176 4 0  178 4 0  180 4 0  182 4 0  184 4 0  186 4 0  188 4 0  190 4 0  192 4 0  194 4 0  196 4 0  198 4 0  200 4 0  0 6 0  2 6 0  4 6 0  6 6 0  8 6 0  10 6 0  12 6 0  14 6 0  16 6 0  18 6 0  20 6 0  22 6 0  24 6 0  26 6 0  28 6 0  30 6 0  32 6 0  34 6 0  36 6 0  38 6 0  40 6 0  42 6 0  44 6 0  46 6 0  48 6 0  50 6 0  52 6 0  54 6 0  56 6 0  58 6 0  60 6 0  62 6 0  64 6 0  66 6 0  68 6 0  70 6 0  72 6 0  74 6 0  76 6 0  78 6 0  80 6 0  82 6 0  84 6 0  86 6 0  88 6 0  90 6 0  92 6 0  94 6 0  96 6 0  98 6 0  100 6 0  102 6 0  104 6 0  106 6 0  108 6 0  110 6 0  112 6 0  114 6 0  116 6 0  118 6 0  120 6 0  122 6 0  124 6 0  126 6 0  128 6 0  130 6 0  132 6 0  134 6 0  136 6 0  138 6 0  140 6 0  142 6 0  144 6 0  146 6 0  148 6 0  150 6 0  152 6 0  154 6 0  156 6 0  158 6 0  160 6 0  162 6 0  164 6 0  166 6 0  168 6 0  170 6 0  172 6 0  174 6 0  176 6 0  178 6 0  180 6 0  182 6 0  184 6 0  186 6 0  188 6 0  190 6 0  192 6 0  194 6 0  196 6 0  198 6 0  200 6 0  0 8 0  2 8 0  4 8 0  6 8 0  8 8 0  10 8 0  12 8 0  14 8 0  16 8 0  18 8 0  20 8 0  22 8 0  24 8 0  26 8 0  28 8 0  30 8 0  32 8 0  34 8 0  36 8 0  38 8 0  40 8 0  42 8 0  44 8 0  46 8 0  48 8 0  50 8 0  52 8 0  54 8 0  56 8 0  58 8 0  60 8 0  62 8 0  64 8 0  66 8 0  68 8 0  70 8 0  72 8 0  74 8 0  76 8 0  78 8 0  80 8 0  82 8 0  84 8 0  86 8 0  88 8 0  90 8 0  92 8 0  94 8 0  96 8 0  98 8 0  100 8 0  102 8 0  104 8 0  106 8 0  108 8 0  110 8 0  112 8 0  114 8 0  116 8 0  118 8 0  120 8 0  122 8 0  124 8 0  126 8 0  128 8 0  130 8 0  132 8 0  134 8 0  136 8 0  138 8 0  140 8 0  142 8 0  144 8 0  146 8 0  148 8 0  150 8 0  152 8 0  154 8 0  156 8 0  158 8 0  160 8 0  162 8 0  164 8 0  166 8 0  168 8 0  170 8 0  172 8 0  174 8 0  176 8 0  178 8 0  180 8 0  182 8 0  184 8 0  186 8 0  188 8 0  190 8 0  192 8 0  194 8 0  196 8 0  198 8 0  200 8 0  0 10 0  2 10 0  4 10 0  6 10 0  8 10 0  10 10 0  12 10 0  14 10 0  16 10 0  18 10 0  20 10 0  22 10 0  24 10 0  26 10 0  28 10 0  30 10 0  32 10 0  34 10 0  36 10 0  38 10 0  40 10 0  42 10 0  44 10 0  46 10 0  48 10 0  50 10 0  52 10 0  54 10 0  56 10 0  58 10 0  60 10 0  62 10 0  64 10 0  66 10 0  68 10 0  70 10 0  72 10 0  74 10 0  76 10 0  78 10 0  80 10 0  82 10 0  84 10 0  86 10 0  88 10 0  90 10 0  92 10 0  94 10 0  96 10 0  98 10 0  100 10 0  102 10 0  104 10 0  106 10 0  108 10 0  110 10 0  112 10 0  114 10 0  116 10 0  118 10 0  120 10 0  122 10 0  124 10 0  126 10 0  128 10 0  130 10 0  132 10 0  134 10 0  136 10 0  138 10 0  140 10 0  142 10 0  144 10 0  146 10 0  148 10 0  150 10 0  152 10 0  154 10 0  156 10 0  158 10 0  160 10 0  162 10 0  164 10 0  166 10 0  168 10 0  170 10 0  172 10 0  174 10 0  176 10 0  178 10 0  180 10 0  182 10 0  184 10 0  186 10 0  188 10 0  190 10 0  192 10 0  194 10 0  196 10 0  198 10 0  200 10 0  0 12 0  2 12 0  4 12 0  6 12 0  8 12 0  10 12 0  12 12 0  14 12 0  16 12 0  18 12 0  20 12 0  22 12 0  24 12 0  26 12 0  28 12 0  30 12 0  32 12 0  34 12 0  36 12 0  38 12 0  40 12 0  42 12 0  44 12 0  46 12 0  48 12 0  50 12 0  52 12 0  54 12 0  56 12 0  58 12 0  60 12 0  62 12 0  64 12 0  66 12 0  68 12 0  70 12 0  72 12 0  74 12 0  76 12 0  78 12 0  80 12 0  82 12 0  84 12 0  86 12 0  88 12 0  90 12 0  92 12 0  94 12 0  96 12 0  98 12 0  100 12 0  102 12 0  104 12 0  106 12 0  108 12 0  110 12 0  112 12 0  114 12 0  116 12 0  118 12 0  120 12 0  122 12 0  124 12 0  126 12 0  128 12 0  130 12 0  132 12 0  134 12 0  136 12 0  138 12 0  140 12 0  142 12 0  144 12 0  146 12 0  148 12 0  150 12 0  152 12 0  154 12 0  156 12 0  158 12 0  160 12 0  162 12 0  164 12 0  166 12 0  168 12 0  170 12 0  172 12 0  174 12 0  176 12 0  178 12 0  180 12 0  182 12 0  184 12 0  186 12 0  188 12 0  190 12 0  192 12 0  194 12 0  196 12 0  198 12 0  200 12 0  0 14 0  2 14 0  4 14 0  6 14 0  8 14 0  10 14 0  12 14 0  14 14 0  16 14 0  18 14 0  20 14 0  22 14 0  24 14 0  26 14 0  28 14 0  30 14 0  32 14 0  34 14 0  36 14 0  38 14 0  40 14 0  42 14 0  44 14 0  46 14 0  48 14 0  50 14 0  52 14 0  54 14 0  56 14 0  58 14 0  60 14 0  62 14 0  64 14 0  66 14 0  68 14 0  70 14 0  72 14 0  74 14 0  76 14 0  78 14 0  80 14 0  82 14 0  84 14 0  86 14 0  88 14 0  90 14 0  92 14 0  94 14 0  96 14 0  98 14 0  100 14 0  102 14 0  104 14 0  106 14 0  108 14 0  110 14 0  112 14 0  114 14 0  116 14 0  118 14 0  120 14 0  122 14 0  124 14 0  126 14 0  128 14 0  130 14 0  132 14 0  134 14 0  136 14 0  138 14 0  140 14 0  142 14 0  144 14 0  146 14 0  148 14 0  150 14 0  152 14 0  154 14 0  156 14 0  158 14 0  160 14 0  162 14 0  164 14 0  166 14 0  168 14 0  170 14 0  172 14 0  174 14 0  176 14 0  178 14 0  180 14 0  182 14 0  184 14 0  186 14 0  188 14 0  190 14 0  192 14 0  194 14 0  196 14 0  198 14 0  200 14 0  0 16 0  2 16 0  4 16 0  6 16 0  8 16 0  10 16 0  12 16 0  14 16 0  16 16 0  18 16 0  20 16 0  22 16 0  24 16 0  26 16 0  28 16 0  30 16 0  32 16 0  34 16 0  36 16 0  38 16 0  40 16 0  42 16 0  44 16 0  46 16 0  48 16 0  50 16 0  52 16 0  54 16 0  56 16 0  58 16 0  60 16 0  62 16 0  64 16 0  66 16 0  68 16 0  70 16 0  72 16 0  74 16 0  76 16 0  78 16 0  80 16 0  82 16 0  84 16 0  86 16 0  88 16 0  90 16 0  92 16 0  94 16 0  96 16 0  98 16 0  100 16 0  102 16 0  104 16 0  106 16 0  108 16 0  110 16 0  112 16 0  114 16 0  116 16 0  118 16 0  120 16 0  122 16 0  124 16 0  126 16 0  128 16 0  130 16 0  132 16 0  134 16 0  136 16 0  138 16 0  140 16 0  142 16 0  144 16 0  146 16 0  148 16 0  150 16 0  152 16 0  154 16 0  156 16 0  158 16 0  160 16 0  162 16 0  164 16 0  166 16 0  168 16 0  170 16 0  172 16 0  174 16 0  176 16 0  178 16 0  180 16 0  182 16 0  184 16 0  186 16 0  188 16 0  190 16 0  192 16 0  194 16 0  196 16 0  198 16 0  200 16 0  0 18 0  2 18 0  4 18 0  6 18 0  8 18 0  10 18 0  12 18 0  14 18 0  16 18 0  18 18 0  20 18 0  22 18 0  24 18 0  26 18 0  28 18 0  30 18 0  32 18 0  34 18 0  36 18 0  38 18 0  40 18 0  42 18 0  44 18 0  46 18 0  48 18 0  50 18 0  52 18 0  54 18 0  56 18 0  58 18 0  60 18 0  62 18 0  64 18 0  66 18 0  68 18 0  70 18 0  72 18 0  74 18 0  76 18 0  78 18 0  80 18 0  82 18 0  84 18 0  86 18 0  88 18 0  90 18 0  92 18 0  94 18 0  96 18 0  98 18 0  100 18 0  102 18 0  104 18 0  106 18 0  108 18 0  110 18 0  112 18 0  114 18 0  116 18 0  118 18 0  120 18 0  122 18 0  124 18 0  126 18 0  128 18 0  130 18 0  132 18 0  134 18 0  136 18 0  138 18 0  140 18 0  142 18 0  144 18 0  146 18 0  148 18 0  150 18 0  152 18 0  154 18 0  156 18 0  158 18 0  160 18 0  162 18 0  164 18 0  166 18 0  168 18 0  170 18 0  172 18 0  174 18 0  176 18 0  178 18 0  180 18 0  182 18 0  184 18 0  186 18 0  188 18 0  190 18 0  192 18 0  194 18 0  196 18 0  198 18 0  200 18 0  0 20 0  2 20 0  4 20 0  6 20 0  8 20 0  10 20 0  12 20 0  14 20 0  16 20 0  18 20 0  20 20 0  22 20 0  24 20 0  26 20 0  28 20 0  30 20 0  32 20 0  34 20 0  36 20 0  38 20 0  40 20 0  42 20 0  44 20 0  46 20 0  48 20 0  50 20 0  52 20 0  54 20 0  56 20 0  58 20 0  60 20 0  62 20 0  64 20 0  66 20 0  68 20 0  70 20 0  72 20 0  74 20 0  76 20 0  78 20 0  80 20 0  82 20 0  84 20 0  86 20 0  88 20 0  90 20 0  92 20 0  94 20 0  96 20 0  98 20 0  100 20 0  102 20 0  104 20 0  106 20 0  108 20 0  110 20 0  112 20 0  114 20 0  116 20 0  118 20 0  120 20 0  122 20 0  124 20 0  126 20 0  128 20 0  130 20 0  132 20 0  134 20 0  136 20 0  138 20 0  140 20 0  142 20 0  144 20 0  146 20 0  148 20 0  150 20 0  152 20 0  154 20 0  156 20 0
[...]
<PointData  Scalars="f_271-5"> 
<DataArray  type="Float64"  Name="f_271-5"  format="ascii">2.3974617937310089e-15  2.3486132697509364e-15  2.2145764132742856e-15  2.0291025210346188e-15  1.8371351296214393e-15  1.6817990359386883e-15  1.5925242686686003e-15  1.5777684041073476e-15  1.6241471953267678e-15  1.7017453838092314e-15  1.7735749544504273e-15  1.8060663865766577e-15  1.7774224816231996e-15  1.6816424518746238e-15  1.5276635422911769e-15  1.3347116563554459e-15  1.1259646364056874e-15  9.2271814920025387e-16  7.4056062878114515e-16  5.8805308597810725e-16  4.6752208961978233e-16  3.7707345438380822e-16  3.1286647354542351e-16  2.7095772042356406e-16  2.4847517567509057e-16  2.4435435009588547e-16  2.6021034248708643e-16  3.0202145790071182e-16  3.8309911378567442e-16  5.2829860745792066e-16  7.7861173526865706e-16  1.1943737681566908e-15  1.8555625503407769e-15  2.8668070071916188e-15  4.4435594719421220e-15  7.6326585112424062e-15  1.9531122178505803e-14  8.9986608699794655e-14  5.6870403316353098e-13  3.9084261562432219e-12  2.7336761498730185e-11  1.9211765689853248e-10  1.3540189025821873e-09  9.5702354961233548e-09  6.7861221340489545e-08  4.8298912198880276e-07  3.4525505020279275e-06  2.4807275737363289e-05  1.7935103127267050e-04  1.3059363000073926e-03  9.5635036836359665e-03  6.9128349867941405e-02  3.8024926381233870e-01  8.3657937320571674e-01  9.6775511325761709e-01  9.9282398712498987e-01  9.9823472171302108e-01  9.9937616618926561e-01  9.9902160567505172e-01  9.9537621332806436e-01  9.7313257333829761e-01  8.2289466790078358e-01  2.6722368810701191e-01  4.6573768365430158e-03  -2.1798933223014756e-04  1.2162221132035749e-05  -6.9419928472849387e-07  3.9765316052405737e-08  -2.2774806956600791e-09  1.3023648446562389e-10  -7.4262205732891665e-12  4.2143127827103119e-13  -2.3713418407115901e-14  1.3052146971369847e-15  5.4918731120368929e-17  4.2010808853563271e-16  6.5531362335153505e-16  7.0872296469167674e-16  6.7367540979996605e-16  6.0684329109899557e-16  5.3650415936972477e-16  4.7620763791768048e-16  4.3077718747129777e-16  3.9940565281858518e-16  3.7778659547152311e-16  3.5954874217717413e-16  3.3650745175178819e-16  2.9669292586008002e-16  2.1954057527210274e-16  9.2695003528017963e-17  9.2588356582404694e-18  7.7361082688898193e-20  5.6197245660565455e-21  -8.4443544874333510e-23  -1.5440918516460134e-25  -7.2486788072668329e-24  -3.1705687425534748e-24  -1.4877328581657890e-24  1.1516949954238733e-25  3.9571836656682714e-25  3.8808628233906763e-25  2.3439121768623005e-15  2.2966637302642150e-15  2.1670337346412518e-15  1.9877094040074349e-15  1.8022083225394668e-15  1.6522678265429606e-15  1.5663374309231262e-15  1.5525346847205807e-15  1.5978201004099724e-15  1.6731664502329946e-15  1.7427440471835455e-15  1.7740942324756658e-15  1.7462125043469626e-15  1.6534169043238199e-15  1.5044728483175773e-15  1.3180441136029808e-15  1.1165229058500257e-15  9.2037378155188416e-16  7.4445719136314759e-16  5.9680862179706979e-16  4.7947869130472012e-16  3.9054828067343879e-16  3.2636898334673677e-16  2.8334927075423207e-16  2.5905730097205576e-16  2.5287860257935402e-16  2.6680368329649525e-16  3.0701738203275560e-16  3.8675994640542262e-16  5.3041583980368970e-16  7.7798771340387748e-16  1.1882250315683427e-15  1.8389156573312562e-15  2.8317329568108403e-15  4.3758239377242990e-15  7.4861686208244545e-15  1.9034229847332129e-14  8.7204447923251360e-14  5.4939974474684040e-13  3.7670621353211896e-12  2.6286735071131706e-11  1.8426035287167170e-10  1.2948090164536027e-09  9.1205235164456986e-09  6.4414224793379037e-08  4.5628253260704557e-07  3.2429471097099267e-06  2.3135968357280272e-05  1.6575399605453533e-04  1.1924680319345962e-03  8.5849495925693648e-03  6.0668908554550059e-02  3.4226275172370352e-01  8.1258690363700792e-01  9.6177491625597267e-01  9.9114276831754811e-01  9.9767515395288175e-01  9.9911480429529154e-01  9.9875541981980198e-01  9.9476593283344628e-01  9.7108984500438411e-01  8.1453549563769112e-01  2.5707746503553797e-01  4.2457412841679339e-03  -1.9703409153450847e-04  1.0949734340053402e-05  -6.2407491149147332e-07  3.5797855770208737e-08  -2.0611001944621518e-09  1.1911871944187726e-10  -6.9133335251147410e-12  4.0297351820078243e-13  -2.3562363759457147e-14  1.3677241743403597e-15  6.5462611614920898e-17  4.3834105961734566e-16  6.5685355630928395e-16  7.0309859285446743e-16  6.6846383220090183e-16  6.0558473425220612e-16  5.4042814749793094e-16  4.8537024963097096e-16  4.4457218290861629e-16  4.1680540180928025e-16  3.9752244716269812e-16  3.8031499356793218e-16  3.5723348556739122e-16  3.1693134307217729e-16  2.3969617070698131e-16  1.0942777971176687e-16  1.3057468056693008e-17  2.1498018472014217e-19  9.5962466916077055e-21  -3.7742347909955174e-22  6.1738414749735868e-23  6.4492968254723187e-23  1.4770433266147279e-23  1.7066322588278075e-24  -3.1692099158125349e-24  -2.8686471681405943e-24  -2.3393252029143300e-24  2.1918020702195986e-15  2.1491638387365577e-15  2.0322524560546271e-15  1.8707425902046637e-15  1.7041011030742562e-15  1.5700977366959713e-15  1.4943359232622081e-15  1.4838770235574778e-15  1.5265593956214666e-15  1.5957919640543359e-15  1.6589894964411373e-15  1.6868588590409009e-15  1.6607125547310673e-15  1.5758776391142298e-15  1.4407445800611190e-15  1.2724732426817490e-15  1.0912743337293520e-15  9.1525064807183631e-16  7.5714958614469108e-16  6.2344303384425604e-16  5.1532490197595000e-16  4.3075155737381801e-16  3.6659919407783124e-16  3.2028803440929354e-16  2.9067393555406161e-16  2.7846784438611831e-16  2.8676614679928466e-16  3.2235742026594793e-16  3.9826521384336769e-16  5.3748842268327465e-16  7.7714360767715260e-16  1.1713831304516853e-15  1.7916828363731755e-15  2.7312535222515168e-15  4.1813478095908017e-15  7.0670351998126951e-15  1.7625182714191020e-14  7.9375966848048071e-14  4.9535132762809888e-13  3.3729796022516371e-12  2.3373011874336023e-11  1.6256980016123534e-10  1.1323245206801289e-09  7.8948935084522735e-09  5.5095731357177557e-08  3.8478122966438463e-07  2.6883833388574505e-06  1.8779287759710230e-05  1.3099387157887375e-04  9.0996223253039332e-04  6.2492893376904319e-03  4.1515443328705944e-02  2.4284282435987611e-01  7.2002892188855372e-01  9.3724987191522124e-01  9.8398440548993671e-01  9.9513672333168046e-01  9.9781707037498779e-01  9.9741494444364653e-01  9.9188429636197994e-01  9.6174823114661012e-01  7.7874748334892718e-01  2.2305305913815834e-01  3.3433644925617563e-03  -1.4726546312491891e-04  7.8997744162094260e-06  -4.3389766751241083e-07  2.3869061087434400e-08  -1.3108289940182291e-09  7.1931461162485958e-11  -3.9561864660623764e-12  2.1918630284904887e-13  -1.2301345717763607e-14  6.9582732623719964e-16  1.6901841192092765e-16  5.1848188738871860e-16  6.7453606675611879e-16  6.9108455558485383e-16  6.5491958273461273e-16  6.0279668274173366e-16  5.5240214940524164e-16  5.1238414035008710e-16  4.8492518541014077e-16  4.6755255441482861e-16  4.5499805865957618e-16  4.4072167181515951e-16  4.1741863771118885e-16  3.7552432897345229e-16  2.9838373071193449e-16  1.6392117213810360e-16  3.1427385984841234e-17  1.2625135810208404e-18  4.0389738118190456e-20  4.6320120058262407e-21  -4.7394895121023948e-22  -9.1389338601558142e-22  -1.7057022355264999e-22  1.5967980807853323e-23  5.2655591216531217e-23  4.4071370658315188e-23  3.6934426585340687e-23  1.9646343289405083e-15  1.9290852520956055e-15  1.8317968451304816e-15  1.6979750637367323e-15  1.5610359548291410e-15  1.4527419368405644e-15  1.3942577092676433e-15  1.3907874860006225e-15  1.4311651766419700e-15  1.4921676169470160e-15  1.5459085065147303e-15  1.5678481162032886e-15  1.5429567787360067e-15  1.4683858223819108e-15  1.3523164712648457e-15  1.2099537798770868e-15  1.0584122135192731e-15  9.1227225311679784e-16  7.8099319834513145e-16  6.6849831024471937e-16  5.7447973258446942e-16  4.9654212156370641e-16  4.3227609682286631e-16  3.8064658056247460e-16  3.4254306124223759e-16  3.2079635288670215e-16  3.2027177114721581e-16  3.4870869432076511e-16  4.1876027282812598e-16  5.5120775866748658e-16  7.7862445519704070e-16  1.1480168810469916e-15  1.7211601314506138e-15  2.5784273677703174e-15  3.8843930001304834e-15  6.4315310243484786e-15  1.5526518535812184e-14  6.7896805203649372e-14  4.1688994880135292e-13  2.8058356232796764e-12  1.9218147434737711e-11  1.3195832847588258e-10  9.0571479411221251e-10  6.2088851381990743e-09  4.2482152028050202e-08  2.8984233352052239e-07  1.9690942439941735e-06  1.3291527118176074e-05  8.8832697932108705e-05  5.8438689759370596e-04  3.7438718403089767e-03  2.2918770020735921e-02  1.2935610571242454e-01  5.0828328502912590e-01  8.6147159421484376e-01  9.6105851161283584e-01  9.8605540419755311e-01  9.9260609081276907e-01  9.9200999718646332e-01  9.8119870898124351e-01  9.2956052724894289e-01  6.6764153484785904e-01  1.5896661237869766e-01  3.0126219299791849e-03  -1.2159627627050321e-04  6.3953815167706391e-06  -3.4438573350582061e-07  1.8291115567495831e-08  -9.4017562615587738e-10  4.5534740384330407e-11  -1.9577757174138035e-12  6.0782974794605985e-14  6.7631270088609289e-16  -3.3001546139380389e-16  6.6924198265122221e-16  8.5174966917196944e-16  7.6530060096831811e-16  6.8797576497539243e-16  6.3875419684743356e-16  6.0096105817124896e-16  5.7269667990347412e-16  5.5563376304199786e-16  5.4869558410301706e-16  5.4741828394666474e-16  5.4535707504077739e-16  5.3569668106866929e-16  5.1204890817441110e-16  4.6747813127335442e-16  3.9060853756360291e-16  2.6065693568320520e-16  9.0289968488811977e-17  8.7062888451540712e-18  4.2015244968433643e-19  -2.1724505968188124e-20  5.7423292758927505e-21  1.3228191512609840e-20  3.0673628930561372e-21  -1.5646919305075404e-22  -7.8135584595102524e-22  -7.1551632867344806e-22  -6.3034504046210093e-22  1.6952133696716181e-15  1.6684638139062986e-15  1.5956536272576530e-15  1.4967447709740031e-15  1.3979738718762552e-15  1.3238247132322087e-15  1.2898436400605707e-15  1.2985038811617795e-15  1.3392201240198250e-15  1.3922431000853912e-15  1.4349677416754180e-15  1.4485232111043496e-15  1.4225754178759429e-15  1.3570295138358754e-15  1.2604816824120941e-15  1.1463801418896164e-15  1.0284931862023708e-15  9.1725833139234970e-16  8.1801013754100817e-16  7.3126591605258528e-16  6.5452852538265915e-16  5.8467474670272326e-16  5.2000561650675040e-16  4.6136827882221071e-16  4.1225512065622367e-16  3.7825736853509697e-16  3.6654278428530832e-16  3.8605862052383190e-16  4.4892454229530181e-16  5.7301381320678044e-16  7.8508253223508598e-16  1.1231525462824812e-15  1.6370024483921787e-15  2.3914298988354976e-15  3.5194446601508474e-15  5.6590606609812041e-15  1.3042996116410169e-14  5.4631586342304311e-14  3.2759113908093044e-13  2.1687180804859937e-12  1.4614575771917144e-11  9.8561971930557058e-11  6.6282739926440201e-10  4.4384137166039850e-09  2.9550825170567443e-08  1.9524988420391120e-07  1.2767482684999599e-06  8.2299324037124772e-06  5.1993247428714455e-05  3.1920276804145990e-04  1.8815385375750492e-03  1.0476393837033379e-02  5.3108548514026091e-02  2.3499667293665508e-01  6.3346326653367868e-01  8.7791902772772190e-01  9.5007069847124415e-01  9.6961201274044273e-01  9.6804268528193982e-01  9.3913864838648131e-01  8.0850022414304390e-01  4.1249263198976577e-01  8.3631230420194352e-02  3.5929384493127593e-03  -1.2174142201588006e-04  6.9258365663021457e-06  -4.2288378001678590e-07  2.6570819930873756e-08  -1.7023743460181942e-09  1.1096453391527021e-10  -7.3434563388196271e-12  4.9334907346213754e-13  -3.3141573777045358e-14  4.2798155525904703e-15  3.9551937469040503e-15  2.1136803009004733e-15  1.0514568696275526e-15  7.1791482969352920e-16  6.2749833413286708e-16  6.0294393412941712e-16  6.0113935363770058e-16  6.1250595493115158e-16  6.3160447814426648e-16  6.5147781855227141e-16  6.6421167487168467e-16  6.6262238616384709e-16  6.4130810757392456e-16  5.9625015352159888e-16  5.2188129106064555e-16  4.0540656131492073e-16  2.2969683502576907e-16  5.7207556188721401e-17  3.9284943175545108e-18  8.8916690969516731e-19  1.4133850151763140e-20  -1.8820143167859465e-19  -5.9673394982419868e-20  -1.9518412188087141e-21  1.1595414873099347e-20  1.1824365572635987e-20  1.0883395919694588e-20  1.4182033791185971e-15  1.4010939082727085e-15  1.3552736102115756e-15  1.2953952559560838e-15  1.2403106788796320e-15  1.2067955643811840e-15  1.2040982948884122e-15  1.2310990183109317e-15  1.2769080387161670e-15  1.3245515902413123e-15  1.3563870650210869e-15  1.3593798239463503e-15  1.3285202578388415e-15  1.2674018810621459e-15  1.1860342296842025e-15  1.0969184671514189e-15  1.0109112938470443e-15  9.3429734525972585e-16  8.6789151713849503e-16  8.0818517232622716e-16  7.4985141577334508e-16  6.8856341117090059e-16  6.2313506589106198e-16  5.5639253721760889e-16  4.9474701185290297e-16  4.4694952714853868e-16  4.2279911017030772e-16  4.3257498896430159e-16  4.8769474376872832e-16  6.0263351260409981e-16  7.9755254824939927e-16  1.1005192069096884e-15  1.5483002641907844e-15  2.1892108429901853e-15  3.1239025972581105e-15  4.8350693531602328e-15  1.0487791890084176e-14  4.1419247148062968e-14  2.4046812669158007e-13  1.5578767149736084e-12  1.0281091095869492e-11  6.7764293728070065e-11  4.4403132428187459e-10  2.8861388322299396e-09  1.8565767763229424e-08  1.1783963845196122e-07  7.3496750228185319e-07  4.4791600347207411e-06  2.6470089677047474e-05  1.5016475189153113e-04  8.0744696912710611e-04  4.0367693902044538e-03  1.8529043965737103e-02  7.4711928504896205e-02  2.5793257757599752e-01  5.7293442549614459e-01  7.8021708158876646e-01  8.5081354332329240e-01  8.4414865460754251e-01  7.4165453655715730e-01  4.5790736156194084e-01  1.5367771530528387e-01  3.4268336135454928e-02  3.4743451373020658e-03  -2.2750238846998400e-05  1.3900380937438311e-06  -6.4066777034378618e-08  2.9079082171791496e-09  -1.1113671439161002e-10  2.2575185868397158e-12  1.3340645896047986e-13  -5.2004604169914319e-14  4.4547131489234862e-14  4.3642547924889353e-14  1.8520709436323013e-14  5.4508696693487703e-15  1.6817811695337125e-15  8.0381410844875097e-16  6.2787506773203501e-16  6.1172582802594810e-16  6.3885295157681854e-16  6.8396528395697285e-16  7.3713155889417520e-16  7.8947106674346010e-16  8.3222141449983495e-16  8.5813209038272782e-16  8.6252682312431923e-16  8.4262181967126444e-16  7.9574436608068007e-16  7.1440860031219660e-16  5.7612185024027435e-16  3.4298483305573941e-16  9.1674421805598087e-17  -2.9480455232569647e-20  7.3534688885631819e-20  2.8862967600942062e-18  1.1643594261671534e-18  1.2366284972637141e-19  -1.6726167365138384e-19  -1.9529961525774002e-19  -1.8701399045174759e-19  1.1631048896923758e-15  1.1556349187102959e-15  1.1370122704717395e-15  1.1171090890702228e-15  1.1079814549378080e-15  1.1190352357125688e-15  1.1530700200823415e-15  1.2046633705516884e-15  1.2614847963483316e-15  1.3080658992031552e-15  1.3306800216180458e-15  1.3216067417931173e-15  1.2813071368425247e-15  1.2178202359944774e-15  1.1437075958246105e-15  1.0717282379144230e-15  1.0108040954453223e-15  9.6362841968318373e-16  9.2660119103570307e-16  8.9192673940467613e-16  8.5099264709291589e-16  7.9780180148689388e-16  7.3134046823948155e-16  6.5625589845969839e-16  5.8187707287448108e-16  5.2018881676934430e-16  4.8367244473669567e-16  4.8389307700352437e-16  5.3140111660254442e-16  6.3703193488661768e-16  8.1413523075503063e-16  1.0807703134147155e-15  1.4609485055985674e-15  1.9872960469428947e-15  2.7307772233897009e-15  4.0346129880976641e-15  8.1180942470382030e-15  2.9671403129723444e-14  1.6503045879444373e-13  1.0404350677696287e-12  6.6931487158663937e-12  4.2907385359946441e-11  2.7249327163817195e-10  1.7090986706749580e-09  1.0552811501177857e-08  6.3882075169245835e-08  3.7711258606102754e-07  2.1558508169846549e-06  1.1829806838537432e-05  6.1634374223539973e-05  3.0071943703954032e-04  1.3574672816611540e-03  5.5435298633624815e-03  2.0339923740763866e-02  6.3565740731172979e-02  1.6531241023906684e-01  3.1033760993406589e-01  4.0963714019925457e-01  3.9585261969965391e-01  2.7148563113646729e-01  1.2465828964746586e-01  4.2352448799772228e-02  1.1560617136003279e-02  2.1032007816990409e-03  1.2847904866584514e-04  -1.5582895760377358e-06  1.6742948780303819e-07  -9.8871741143395584e-09  7.1226595423227799e-10  -4.5102949721337645e-11  4.9250820538763313e-12  1.2700574099939655e-12  7.0294835495570196e-13  2.2166697709648116e-13  5.3416532774169608e-14  1.1638860336214523e-14  2.7093467138202324e-15  9.5081697231487968e-16  6.4569069224755664e-16  6.3673302742999958e-16  7.0336057415811615e-16  8.0481110140624964e-16  9.3216578281651435e-16  1.0814771018957603e-15  1.2494695106142275e-15  1.4323227976162778e-15  1.6233283091496448e-15  1.8112872849427898e-15  1.9767598998388726e-15  2.0924321815982128e-15  2.1170947935465823e-15  1.9608412843782402e-15  1.4449255005984733e-15  6.2485295917529429e-16  8.7623836093562923e-17  -3.8529483971507515e-17  -2.1738583501080398e-17  -3.5593688143057916e-18  2.4191914058425539e-18  3.3095953309374067e-18  3.2672839525195981e-18  9.4950868689418693e-16  9.5095902497442094e-16  9.5772397322002134e-16  9.7580735363683461e-16  1.0116040557120414e-15  1.0680768946229237e-15  1.1419300043192491e-15  1.2230411324438659e-15  1.2965590970308744e-15  1.3470459161243763e-15  1.3632321732815887e-15  1.3416702422197240e-15  1.2879327941666301e-15  1.2148833892310757e-15  1.1386023283288167e-15  1.0733757038369004e-15  1.0274469042533056e-15  1.0009099926070058e-15  9.8634590272003134e-16  9.7186354175142044e-16  9.4543653368520639e-16  8.9907520962238440e-16  8.3154204757629550e-16  7.4891722225706147e-16  6.6310186728667202e-16  5.8901072700164861e-16  5.4153454141881329e-16  5.3328992198297795e-16  5.7381148228211906e-16  6.7032712100367553e-16  8.2971971475219074e-16  1.0608319909416867e-15  1.3762590742483985e-15  1.7950450144645370e-15  2.3634423596533098e-15  3.3110077682888291e-15  6.0977413577247099e-15  2.0176637118741614e-14  1.0604440103776660e-13  6.4642421339461017e-13  4.0346319454785723e-12  2.5039488946364501e-11  1.5335229360984774e-10  9.2311139649180446e-10  5.4391384560189493e-09  3.1211931886457715e-08  1.7332827441112162e-07  9.2420546164839746e-07  4.6871985542143453e-06  2.2357486291243096e-05  9.9157218804159117e-05  4.0258224350534112e-04  1.4798789579009764e-03  4.7841836699593129e-03  1.3353776907993189e-02  3.0632115631672275e-02  5.6130726447655252e-02  7.6867760074529126e-02  7.3641575074606211e-02  4.9408874454759139e-02  2.4955465604301841e-02  9.9956611917798310e-03  3.2423157602885994e-03  8.2613347020780569e-04  1.3474514979289664e-04  9.1835631127245321e-06  2.3307194873799117e-07  1.9365640655399469e-08  1.2317336303081373e-09  2.5415788016221642e-10  5.2799807044403262e-11  1.2997925544899989e-11  2.8341503446359892e-12  5.6451347358526192e-13  1.0671473064570984e-13  1.9890327428906835e-14  3.9707521602308362e-15  1.1403746503473995e-15  7.0186572449800825e-16  7.3406163189580398e-16  9.1535090999989213e-16  1.2179213101957052e-15  1.6749517199951245e-15  2.3367209738241023e-15  3.2534151155874304e-15  4.4545216854169360e-15  5.9246050798084369e-15  7.5775974893947839e-15  9.2559287014759327e-15  1.0738347453940948e-14  1.1779515056611089e-14  1.2141682832731029e-14  1.1536293074312904e-14  9.5375905866489910e-15  6.1571108488227145e-15  2.7833831731102668e-15  8.7810062443914918e-16  1.7487369392496316e-16  -1.8910867229000025e-17  -5.4991108539832952e-17  -5.7823909715368860e-17  7.8559139187246564e-16  7.9469261091210526e-16  8.2343192288919794e-16  8.7500499038484610e-16  9.5153732064269934e-16  1.0508387598452022e-15  1.1643089928180016e-15  1.2771747738755499e-15  1.3713483866214000e-15  1.4301385718161724e-15  1.4432319855392699e-15  1.4101302714712704e-15  1.3406952229603109e-15  1.2524602343720373e-15  1.1655206898132803e-15  1.0966702239601852e-15  1.0546921508283968e-15  1.0382882950019706e-15  1.0372182434586911e-15 