<?xml version="1.0"?>
<VTKFile type="UnstructuredGrid"  version="0.1"  >
<UnstructuredGrid>
<Piece  NumberOfPoints="20201" NumberOfCells="40000">
<Points>
<DataArray  type="Float64"  NumberOfComponents="3"  format="ascii">0 0 0  2 0 0  4 0 0  6 0 0  8 0 0  10 0 0  12 0 0  14 0 0  16 0 0  18 0 0  20 0 0  22 0 0  24 0 0  26 0 0  28 0 0  30 0 0  32 0 0  34 0 0  36 0 0  38 0 0  40 0 0  42 0 0  44 0 0  46 0 0  48 0 0  50 0 0  52 0 0  54 0 0  56 0 0  58 0 0  60 0 0  62 0 0  64 0 0  66 0 0  68 0 0  70 0 0  72 0 0  74 0 0  76 0 0  78 0 0  80 0 0  82 0 0  84 0 0  86 0 0  88 0 0  90 0 0  92 0 0  94 0 0  96 0 0  98 0 0  100 0 0  102 0 0  104 0 0  106 0 0  108 0 0  110 0 0  112 0 0  114 0 0  116 0 0  118 0 0  120 0 0  122 0 0  124 0 0  126 0 0  128 0 0  130 0 0  132 0 0  134 0 0  136 0 0  138 0 0  140 0 0  142 0 0  144 0 0  146 0 0  148 0 0  150 0 0  152 0 0  154 0 0  156 0 0  158 0 0  160 0 0  162 0 0  164 0 0  166 0 0  168 0 0  170 0 0  172 0 0  174 0 0  176 0 0  178 0 0  180 0 0  182 0 0  184 0 0  186 0 0  188 0 0  190 0 0  192 0 0  194 0 0  196 0 0  198 0 0  200 0 0  0 2 0  2 2 0  4 2 0  6 2 0  8 2 0  10 2 0  12 2 0  14 2 0  16 2 0  18 2 0  20 2 0  22 2 0  24 2 0  26 2 0  28 2 0  30 2 0  32 2 0  34 2 0  36 2 0  38 2 0  40 2 0  42 2 0  44 2 0  46 2 0  48 2 0  50 2 0  52 2 0  54 2 0  56 2 0  58 2 0  60 2 0  62 2 0  64 2 0  66 2 0  68 2 0  70 2 0  72 2 0  74 2 0  76 2 0  78 2 0  80 2 0  82 2 0  84 2 0  86 2 0  88 2 0  90 2 0  92 2 0  94 2 0  96 2 0  98 2 0  100 2 0  102 2 0  104 2 0  106 2 0  108 2 0  110 2 0  112 2 0  114 2 0  116 2 0  118 2 0  120 2 0  122 2 0  124 2 0  126 2 0  128 2 0  130 2 0  132 2 0  134 2 0  136 2 0  138 2 0  140 2 0  142 2 0  144 2 0  146 2 0  148 2 0  150 2 0  152 2 0  154 2 0  156 2 0  158 2 0  160 2 0  162 2 0  164 2 0  166 2 0  168 2 0  170 2 0  172 2 0  174 2 0  176 2 0  178 2 0  180 2 0  182 2 0  184 2 0  186 2 0  188 2 0  190 2 0  192 2 0  194 2 0  196 2 0  198 2 0  200 2 0  0 4 0  2 4 0  4 4 0  6 4 0  8 4 0  10 4 0  12 4 0  14 4 0  16 4 0  18 4 0  20 4 0  22 4 0  24 4 0  26 4 0  28 4 0  30 4 0  32 4 0  34 4 0  36 4 0  38 4 0  40 4 0  42 4 0  44 4 0  46 4 0  48 4 0  50 4 0  52 4 0  54 4 0  56 4 0  58 4 0  60 4 0  62 4 0  64 4 0  66 4 0  68 4 0  70 4 0  72 4 0  74 4 0  76 4 0  78 4 0  80 4 0  82 4 0  84 4 0  86 4 0  88 4 0  90 4 0  92 4 0  94 4 0  96 4 0  98 4 0  100 4 0  102 4 0  104 4 0  106 4 0  108 4 0  110 4 0  112 4 0  114 4 0  116 4 0  118 4 0  120 4 0  122 4 0  124 4 0  126 4 0  128 4 0  130 4 0  132 4 0  134 4 0  136 4 0  138 4 0  140 4 0  142 4 0  144 4 0  146 4 0  148 4 0  150 4 0  152 4 0  154 4 0  156 4 0  158 4 0  160 4 0  162 4 0  164 4 0  166 4 0  168 4 0  170 4 0  172 4 0  174 4 0  176 4 0  178 4 0  180 4 0  182 4 0  184 4 0  186 4 0  188 4 0  190 4 0  192 4 0  194 4 0  196 4 0  198 4 0  200 4 0  0 6 0  2 6 0  4 6 0  6 6 0  8 6 0  10 6 0  12 6 0  14 6 0  16 6 0  18 6 0  20 6 0  22 6 0  24 6 0  26 6 0  28 6 0  30 6 0  32 6 0  34 6 0  36 6 0  38 6 0  40 6 0  42 6 0  44 6 0  46 6 0  48 6 0  50 6 0  52 6 0  54 6 0  56 6 0  58 6 0  60 6 0  62 6 0  64 6 0  66 6 0  68 6 0  70 6 0  72 6 0  74 6 0  76 6 0  78 6 0  80 6 0  82 6 0  84 6 0  86 6 0  88 6 0  90 6 0  92 6 0  94 6 0  96 6 0  98 6 0  100 6 0  102 6 0  104 6 0  106 6 0  108 6 0  110 6 0  112 6 0  114 6 0  116 6 0  118 6 0  120 6 0  122 6 0  124 6 0  126 6 0  128 6 0  130 6 0  132 6 0  134 6 0  136 6 0  138 6 0  140 6 0  142 6 0  144 6 0  146 6 0  148 6 0  150 6 0  152 6 0  154 6 0  156 6 0  158 6 0  160 6 0  162 6 0  164 6 0  166 6 0  168 6 0  170 6 0  172 6 0  174 6 0  176 6 0  178 6 0  180 6 0  182 6 0  184 6 0  186 6 0  188 6 0  190 6 0  192 6 0  194 6 0  196 6 0  198 6 0  200 6 0  0 8 0  2 8 0  4 8 0  6 8 0  8 8 0  10 8 0  12 8 0  14 8 0  16 8 0  18 8 0  20 8 0  22 8 0  24 8 0  26 8 0  28 8 0  30 8 0  32 8 0  34 8 0  36 8 0  38 8 0  40 8 0  42 8 0  44 8 0  46 8 0  48 8 0  50 8 0  52 8 0  54 8 0  56 8 0  58 8 0  60 8 0  62 8 0  64 8 0  66 8 0  68 8 0  70 8 0  72 8 0  74 8 0  76 8 0  78 8 0  80 8 0  82 8 0  84 8 0  86 8 0  88 8 0  90 8 0  92 8 0  94 8 0  96 8 0  98 8 0  100 8 0  102 8 0  104 8 0  106 8 0  108 8 0  110 8 0  112 8 0  114 8 0  116 8 0  118 8 0  120 8 0  122 8 0  124 8 0  126 8 0  128 8 0  130 8 0  132 8 0  134 8 0  136 8 0  138 8 0  140 8 0  142 8 0  144 8 0  146 8 0  148 8 0  150 8 0  152 8 0  154 8 0  156 8 0  158 8 0  160 8 0  162 8 0  164 8 0  166 8 0  168 8 0  170 8 0  172 8 0  174 8 0  176 8 0  178 8 0  180 8 0  182 8 0  184 8 0  186 8 0  188 8 0  190 8 0  192 8 0  194 8 0  196 8 0  198 8 0  200 8 0  0 10 0  2 10 0  4 10 0  6 10 0  8 10 0  10 10 0  12 10 0  14 10 0  16 10 0  18 10 0  20 10 0  22 10 0  24 10 0  26 10 0  28 10 0  30 10 0  32 10 0  34 10 0  36 10 0  38 10 0  40 10 0  42 10 0  44 10 0  46 10 0  48 10 0  50 10 0  52 10 0  54 10 0  56 10 0  58 10 0  60 10 0  62 10 0  64 10 0  66 10 0  68 10 0  70 10 0  72 10 0  74 10 0  76 10 0  78 10 0  80 10 0  82 10 0  84 10 0  86 10 0  88 10 0  90 10 0  92 10 0  94 10 0  96 10 0  98 10 0  100 10 0  102 10 0  104 10 0  106 10 0  108 10 0  110 10 0  112 10 0  114 10 0  116 10 0  118 10 0  120 10 0  122 10 0  124 10 0  126 10 0  128 10 0  130 10 0  132 10 0  134 10 0  136 10 0  138 10 0  140 10 0  142 10 0  144 10 0  146 10 0  148 10 0  150 10 0  152 10 0  154 10 0  156 10 0  158 10 0  160 10 0  162 10 0  164 10 0  166 10 0  168 10 0  170 10 0  172 10 0  174 10 0  176 10 0  178 10 0  180 10 0  182 10 0  184 10 0  186 10 0  188 10 0  190 10 0  192 10 0  194 10 0  196 10 0  198 10 0  200 10 0  0 12 0  2 12 0  4 12 0  6 12 0  8 12 0  10 12 0  12 12 0  14 12 0  16 12 0  18 12 0  20 12 0  22 12 0  24 12 0  26 12 0  28 12 0  30 12 0  32 12 0  34 12 0  36 12 0  38 12 0  40 12 0  42 12 0  44 12 0  46 12 0  48 12 0  50 12 0  52 12 0  54 12 0  56 12 0  58 12 0  60 12 0  62 12 0  64 12 0  66 12 0  68 12 0  70 12 0  72 12 0  74 12 0  76 12 0  78 12 0  80 12 0  82 12 0  84 12 0  86 12 0  88 12 0  90 12 0  92 12 0  94 12 0  96 12 0  98 12 0  100 12 0  102 12 0  104 12 0  106 12 0  108 12 0  110 12 0  112 12 0  114 12 0  116 12 0  118 12 0  120 12 0  122 12 0  124 12 0  126 12 0  128 12 0  130 12 0  132 12 0  134 12 0  136 12 0  138 12 0  140 12 0  142 12 0  144 12 0  146 12 0  148 12 0  150 12 0  152 12 0  154 12 0  156 12 0  158 12 0  160 12 0  162 12 0  164 12 0  166 12 0  168 12 0  170 12 0  172 12 0  174 12 0  176 12 0  178 12 0  180 12 0  182 12 0  184 12 0  186 12 0  188 12 0  190 12 0  192 12 0  194 12 0  196 12 0  198 12 0  200 12 0  0 14 0  2 14 0  4 14 0  6 14 0  8 14 0  10 14 0  12 14 0  14 14 0  16 14 0  18 14 0  20 14 0  22 14 0  24 14 0  26 14 0  28 14 0  30 14 0  32 14 0  34 14 0  36 14 0  38 14 0  40 14 0  42 14 0  44 14 0  46 14 0  48 14 0  50 14 0  52 14 0  54 14 0  56 14 0  58 14 0  60 14 0  62 14 0  64 14 0  66 14 0  68 14 0  70 14 0  72 14 0  74 14 0  76 14 0  78 14 0  80 14 0  82 14 0  84 14 0  86 14 0  88 14 0  90 14 0  92 14 0  94 14 0  96 14 0  98 14 0  100 14 0  102 14 0  104 14 0  106 14 0  108 14 0  110 14 0  112 14 0  114 14 0  116 14 0  118 14 0  120 14 0  122 14 0  124 14 0  126 14 0  128 14 0  130 14 0  132 14 0  134 14 0  136 14 0  138 14 0  140 14 0  142 14 0  144 14 0  146 14 0  148 14 0  150 14 0  152 14 0  154 14 0  156 14 0  158 14 0  160 14 0  162 14 0  164 14 0  166 14 0  168 14 0  170 14 0  172 14 0  174 14 0  176 14 0  178 14 0  180 14 0  182 14 0  184 14 0  186 14 0  188 14 0  190 14 0  192 14 0  194 14 0  196 14 0  198 14 0  200 14 0  0 16 0  2 16 0  4 16 0  6 16 0  8 16 0  10 16 0  12 16 0  14 16 0  16 16 0  18 16 0  20 16 0  22 16 0  24 16 0  26 16 0  28 16 0  30 16 0  32 16 0  34 16 0  36 16 0  38 16 0  40 16 0  42 16 0  44 16 0  46 16 0  48 16 0  50 16 0  52 16 0  54 16 0  56 16 0  58 16 0  60 16 0  62 16 0  64 16 0  66 16 0  68 16 0  70 16 0  72 16 0  74 16 0  76 16 0  78 16 0  80 16 0  82 16 0  84 16 0  86 16 0  88 16 0  90 16 0  92 16 0  94 16 0  96 16 0  98 16 0  100 16 0  102 16 0  104 16 0  106 16 0  108 16 0  110 16 0  112 16 0  114 16 0  116 16 0  118 16 0  120 16 0  122 16 0  124 16 0  126 16 0  128 16 0  130 16 0  132 16 0  134 16 0  136 16 0  138 16 0  140 16 0  142 16 0  144 16 0  146 16 0  148 16 0  150 16 0  152 16 0  154 16 0  156 16 0  158 16 0  160 16 0  162 16 0  164 16 0  166 16 0  168 16 0  170 16 0  172 16 0  174 16 0  176 16 0  178 16 0  180 16 0  182 16 0  184 16 0  186 16 0  188 16 0  190 16 0  192 16 0  194 16 0  196 16 0  198 16 0  200 16 0  0 18 0  2 18 0  4 18 0  6 18 0  8 18 0  10 18 0  12 18 0  14 18 0  16 18 0  18 18 0  20 18 0  22 18 0  24 18 0  26 18 0  28 18 0  30 18 0  32 18 0  34 18 0  36 18 0  38 18 0  40 18 0  42 18 0  44 18 0  46 18 0  48 18 0  50 18 0  52 18 0  54 18 0  56 18 0  58 18 0  60 18 0  62 18 0  64 18 0  66 18 0  68 18 0  70 18 0  72 18 0  74 18 0  76 18 0  78 18 0  80 18 0  82 18 0  84 18 0  86 18 0  88 18 0  90 18 0  92 18 0  94 18 0  96 18 0  98 18 0  100 18 0  102 18 0  104 18 0  106 18 0  108 18 0  110 18 0  112 18 0  114 18 0  116 18 0  118 18 0  120 18 0  122 18 0  124 18 0  126 18 0  128 18 0  130 18 0  132 18 0  134 18 0  136 18 0  138 18 0  140 18 0  142 18 0  144 18 0  146 18 0  148 18 0  150 18 0  152 18 0  154 18 0  156 18 0  158 18 0  160 18 0  162 18 0  164 18 0  166 18 0  168 18 0  170 18 0  172 18 0  174 18 0  176 18 0  178 18 0  180 18 0  182 18 0  184 18 0  186 18 0  188 18 0  190 18 0  192 18 0  194 18 0  196 18 0  198 18 0  200 18 0  0 20 0  2 20 0  4 20 0  6 20 0  8 20 0  10 20 0  12 20 0  14 20 0  16 20 0  18 20 0  20 20 0  22 20 0  24 20 0  26 20 0  28 20 0  30 20 0  32 20 0  34 20 0  36 20 0  38 20 0  40 20 0  42 20 0  44 20 0  46 20 0  48 20 0  50 20 0  52 20 0  54 20 0  56 20 0  58 20 0  60 20 0  62 20 0  64 20 0  66 20 0  68 20 0  70 20 0  72 20 0  74 20 0  76 20 0  78 20 0  80 20 0  82 20 0  84 20 0  86 20 0  88 20 0  90 20 0  92 20 0  94 20 0  96 20 0  98 20 0  100 20 0  102 20 0  104 20 0  106 20 0  108 20 0  110 20 0  112 20 0  114 20 0  116 20 0  118 20 0  120 20 0  122 20 0  124 20 0  126 20 0  128 20 0  130 20 0  132 20 0  134 20 0  136 20 0  138 20 0  140 20 0  142 20 0  144 20 0  146 20 0  148 20 0  150 20 0  152 20 0  154 20 0  156 20 0
[...]
<PointData  Scalars="f_271-5"> 
<DataArray  type="Float64"  Name="f_271-5"  format="ascii">3.0286073357669469e-01  2.6855941751727302e-01  2.0093239433553073e-01  1.1872900255743862e-01  4.6251257922100414e-02  5.7172545474412093e-03  7.5619462606585797e-03  5.0761375336148523e-02  1.2385366897014242e-01  2.0451689734909073e-01  2.6619280492403902e-01  2.9146070708392541e-01  2.7823102977614689e-01  2.3524946112626063e-01  1.7576739693873081e-01  1.1342184876131355e-01  5.9739297864289650e-02  2.2430544790487773e-02  3.8444845922289378e-03  4.3467588403597169e-04  4.7852411993389299e-03  9.3883976657456302e-03  9.8314043424440976e-03  6.0527309084911704e-03  1.4517774945435201e-03  4.5572935359107866e-04  5.8474272398607178e-03  1.7055309727235655e-02  2.9995669913793589e-02  3.8678811878195503e-02  3.8211724454076182e-02  2.7853052162177261e-02  1.2429267525860137e-02  1.2927089866069368e-03  5.4941517990599936e-03  3.4738803250473356e-02  9.4677724886105638e-02  1.8338543059736645e-01  2.8848636236259567e-01  3.8971443848508569e-01  4.6573540798129326e-01  5.0043775231350363e-01  4.8725209227390548e-01  4.3131760291888377e-01  3.4764072262523976e-01  2.5460972807826382e-01  1.6777127883785195e-01  9.7635068313696491e-02  4.9010719466481945e-02  2.0788559134617166e-02  7.6144052581629757e-03  3.0401875524073397e-03  2.5547930928041013e-03  5.3772712983037752e-03  1.4463845350863437e-02  3.4869284736491236e-02  7.1291887529907880e-02  1.2562180154206595e-01  1.9451397244290564e-01  2.6729294341648197e-01  3.2701789557578531e-01  3.5672204577265632e-01  3.4654599658933016e-01  2.9786259697995687e-01  2.2393286289363690e-01  1.4417663265305139e-01  7.5067812278567028e-02  2.6411716882455114e-02  2.7517053606378509e-03  4.7521877756493344e-03  2.8990772587819166e-02  6.7282620482642483e-02  1.0759069561318647e-01  1.3770473893133864e-01  1.4961660081423725e-01  1.4163943415458555e-01  1.1779581520840655e-01  8.5538063026851158e-02  5.2946114695322358e-02  2.6391096332826873e-02  9.1866856682062334e-03  1.3362248773140196e-03  2.9631219858325012e-04  2.3970555153208875e-03  4.3548515851682913e-03  4.3857215515684484e-03  2.6024261682780709e-03  5.8500767104904859e-04  3.2155308722946560e-04  3.0617684404529969e-03  8.6609992998085399e-03  1.5545283380055640e-02  2.1092568110906918e-02  2.2610685811216613e-02  1.9237251386708478e-02  1.2761213968885339e-02  5.9607105362609212e-03  1.2034782358728532e-03  2.7397968393533533e-04  4.7296119930479025e-03  1.3834933088062901e-02  2.8766688388745348e-01  2.6071461639634091e-01  2.0151686755379233e-01  1.2551294617166631e-01  5.4499359947114009e-02  9.9203825280499442e-03  3.3756409338640322e-03  3.5547427849364981e-02  9.7486350185342546e-02  1.7046095233228742e-01  2.3048032902548540e-01  2.5960635157616346e-01  2.5333015569153255e-01  2.1818846666103983e-01  1.6596953729210906e-01  1.0938718689215289e-01  5.9447364228123280e-02  2.3722010251497134e-02  4.8968059155652804e-03  2.2778015166353673e-04  3.2382198630226716e-03  7.0993587431618273e-03  7.6330929870594725e-03  4.5916383616286258e-03  9.3834987823091692e-04  6.5550947028680112e-04  6.2524163936403740e-03  1.7115300807161633e-02  2.9333120106284419e-02  3.7233510248901890e-02  3.6256226382324702e-02  2.5878922410619520e-02  1.0992903971209896e-02  9.2637968076154519e-04  6.7243353965588159e-03  3.8175902628709062e-02  1.0108028486506612e-01  1.9356786502509271e-01  3.0300951193422732e-01  4.0843665716722372e-01  4.8764502598131448e-01  5.2400154927587306e-01  5.1074546751480088e-01  4.5294889811141731e-01  3.6584549258870913e-01  2.6851832073286186e-01  1.7732462299499716e-01  1.0337127979600613e-01  5.1846898426718829e-02  2.1778850139352563e-02  7.6778925705451775e-03  2.7442433775415388e-03  2.0024357684902423e-03  4.2204873417432754e-03  1.2033536948306551e-02  3.0362745614468788e-02  6.3935604875024810e-02  1.1479376346655769e-01  1.7995310202327636e-01  2.4947582138841515e-01  3.0733576306777532e-01  3.3707987565409325e-01  3.2886813416931310e-01  2.8379609137622025e-01  2.1431841287667500e-01  1.3868279269239575e-01  7.2621564584446754e-02  2.5800121162460794e-02  2.8045516291360646e-03  4.2687500353206951e-03  2.6733750998151534e-02  6.2244267520769239e-02  9.9437740105069145e-02  1.2700560889857349e-01  1.3767358553591241e-01  1.3009541973775643e-01  1.0817694596077901e-01  7.8840167542772399e-02  4.9393102521851889e-02  2.5430293449168129e-02  9.7039791840383676e-03  2.0287264200680622e-03  9.2341745008360832e-05  7.9528098243197235e-04  1.5820971981769692e-03  1.3124078575092581e-03  4.1877769923362728e-04  3.4531961258657372e-04  2.5486156242188018e-03  7.5693861900698670e-03  1.4612922821726847e-02  2.1687709853899603e-02  2.6137429996615245e-02  2.5713141392217458e-02  2.0269944343180118e-02  1.2256156508333648e-02  4.8616713909337417e-03  5.5801614848210708e-04  9.8134473864295029e-04  7.3609345357339411e-03  1.8207741599235126e-02  2.4349645563522337e-01  2.2651957205811990e-01  1.8202200361549586e-01  1.2074801945885037e-01  5.9415199008878920e-02  1.5690165459750320e-02  9.1586557727871688e-04  1.7627120323132558e-02  6.0394446346585161e-02  1.1643285474148173e-01  1.6794543056444000e-01  1.9904091558522108e-01  2.0267914791473202e-01  1.8143093789647313e-01  1.4367603215247371e-01  9.9598866602750163e-02  5.8495899067208146e-02  2.7081974935609893e-02  8.3016726504784484e-03  9.1098739839598356e-04  5.9203903559520857e-04  2.3532548142739199e-03  2.8529900527417057e-03  1.5203326305308774e-03  1.5381079282806507e-04  1.3646759768371007e-03  6.7126903897190508e-03  1.5432940690205151e-02  2.4348283232096889e-02  2.9163006582367000e-02  2.6754320897552780e-02  1.7421970706832209e-02  5.8890486843838829e-03  4.5655453916314221e-04  1.0771444027198518e-02  4.5309606935875907e-02  1.0885749566399724e-01  1.9913752693909118e-01  3.0412703553854314e-01  4.0424561148553750e-01  4.7896326728343147e-01  5.1323772960853908e-01  5.0121321108402628e-01  4.4754755809075902e-01  3.6579218254224360e-01  2.7318711320664313e-01  1.8506322604660444e-01  1.1222317506003623e-01  6.0022905000553281e-02  2.8114868736673196e-02  1.1912246194395374e-02  5.4276413563961795e-03  4.0494941377051284e-03  6.2633979462306377e-03  1.3835959496008531e-02  3.0520020906561470e-02  5.9924971712826736e-02  1.0333479220111655e-01  1.5782489729190619e-01  2.1502511155182255e-01  2.6200652963021664e-01  2.8554276843412907e-01  2.7777746350992122e-01  2.3994722702003513e-01  1.8221484940069377e-01  1.1901156126812072e-01  6.3125812694627650e-02  2.2976624466914924e-02  2.7762164421841606e-03  3.0241211621367184e-03  2.0496822236286724e-02  4.8391516089104809e-02  7.7591701595631515e-02  9.9341143015133651e-02  1.0810023271295435e-01  1.0289959392316943e-01  8.6757314173407082e-02  6.4891750319876831e-02  4.2707251858309800e-02  2.4260474147677680e-02  1.1505350044867644e-02  4.3323916446421067e-03  1.2469140264694675e-03  3.5613028270205520e-04  2.5492497254529540e-04  4.9232640115968432e-04  1.4949654249442577e-03  4.0427657624813266e-03  8.5782145032682142e-03  1.4704277192292701e-02  2.1101280304265942e-02  2.5845277335109593e-02  2.7017368739235235e-02  2.3609510254835205e-02  1.6503263493317426e-02  8.4011249478718585e-03  2.2629910309636997e-03  1.1651543206593032e-04  3.0038464953810141e-03  1.1421580214146944e-02  2.3003821511896266e-02  1.7869510135784064e-01  1.7198112496043322e-01  1.4520522608553821e-01  1.0385537466176362e-01  5.8640789231938176e-02  2.1712184387629414e-02  2.4222238383189128e-03  4.6267455385977886e-03  2.6456122503279385e-02  6.1036265866222995e-02  9.7839789826811838e-02  1.2579012615356083e-01  1.3753564315119418e-01  1.3174691028686952e-01  1.1212839902450386e-01  8.4911383324733469e-02  5.6591866361245392e-02  3.2378264161485301e-02  1.5224923447513564e-02  5.4799372870934955e-03  1.3833489371609400e-03  3.2032601444745068e-04  1.9311427713272888e-04  2.1969665345802718e-04  8.6261811167392141e-04  3.0481379623494638e-03  7.1516996713705868e-03  1.2310185131960321e-02  1.6477023419181253e-02  1.7325386397425417e-02  1.3685614596439145e-02  6.8487451164205007e-03  1.0352305838799646e-03  2.7077151718595581e-03  1.9010239025179693e-02  5.5917706310635418e-02  1.1618433878695066e-01  1.9681668735398306e-01  2.8743791652449829e-01  3.7218661769208988e-01  4.3480550933899181e-01  4.6362853172614538e-01  4.5438753004302923e-01  4.1088164832497581e-01  3.4342735386101525e-01  2.6525966359312003e-01  1.8879125887780490e-01  1.2336408326987737e-01  7.4095215527811661e-02  4.1579784538968052e-02  2.2980100825239259e-02  1.4118640332851982e-02  1.1526006501029688e-02  1.3708148497466112e-02  2.1316867993623551e-02  3.6282832527468334e-02  6.0334752919798708e-02  9.3459272106310928e-02  1.3271090909644767e-01  1.7176857288441610e-01  2.0192495671080971e-01  2.1485819914148926e-01  2.0609844451527512e-01  1.7717606139751907e-01  1.3505834681504419e-01  8.9185862061731055e-02  4.8221842825346140e-02  1.8310267802830162e-02  2.6546463692569814e-03  1.4977744747450747e-03  1.2250960748247341e-02  3.0035330905418291e-02  4.8851679328583981e-02  6.3242810018906720e-02  6.9829063727825116e-02  6.7983499947193396e-02  5.9431633813610232e-02  4.7167874902119197e-02  3.4275059747772937e-02  2.3067358983911226e-02  1.4719422065611587e-02  9.3570293637389307e-03  6.4633965313931801e-03  5.3775166799627707e-03  5.6605770491792240e-03  7.1959482676251406e-03  1.0023152476963722e-02  1.4029088720686781e-02  1.8685982446061757e-02  2.2999957246029011e-02  2.5716374433584006e-02  2.5704909212876447e-02  2.2419615182159649e-02  1.6333238460771126e-02  9.1001229066153388e-03  3.0633908473096769e-03  2.3306160933256941e-04  1.6271795350629905e-03  7.3149336321495662e-03  1.6845283011351169e-02  2.7358957646773385e-02  1.0810212128445286e-01  1.0972996752532606e-01  9.9976193181810169e-02  7.9451657018853941e-02  5.3107242145235489e-02  2.7419374015622791e-02  8.6057562139011529e-03  7.5151479891591530e-04  4.8829006632575807e-03  1.9006844544203309e-02  3.8737161193800676e-02  5.8430050722617748e-02  7.2874439809047356e-02  7.8952684449852401e-02  7.6302781299270039e-02  6.6789730930245345e-02  5.3412270624931008e-02  3.9251647253331808e-02  2.6712981534298505e-02  1.7124445350147521e-02  1.0725593683417814e-02  7.0038399407431487e-03  5.1927092316290096e-03  4.6697248117753658e-03  5.0774518141467511e-03  6.1714738603827280e-03  7.5585502416751953e-03  8.5537970733942960e-03  8.3325912034779830e-03  6.3987244477110988e-03  3.1993226333496263e-03  5.8745155454459125e-04  1.8487499722031218e-03  1.1184249040563039e-02  3.2775977841958799e-02  6.9631597864534767e-02  1.2224432539463223e-01  1.8720432585752841e-01  2.5666060022921250e-01  3.1978625621714457e-01  3.6591216564617007e-01  3.8757046283744279e-01  3.8220151124925150e-01  3.5235450716499384e-01  3.0455385819807151e-01  2.4730650323694525e-01  1.8908046161017492e-01  1.3677102755520060e-01  9.4694996127462225e-02  6.4270394069948597e-02  4.4585179906356742e-02  3.3575248863768434e-02  2.9212617428627987e-02  3.0253154250064130e-02  3.6369536033958073e-02  4.7726039797106157e-02  6.4230948872146684e-02  8.4784510174824357e-02  1.0682090524767120e-01  1.2640011234309201e-01  1.3902461077179520e-01  1.4105985167384039e-01  1.3116131309356141e-01  1.1090568066029800e-01  8.4237375844558607e-02  5.6114315865721284e-02  3.1144409135512655e-02  1.2694568424731411e-02  2.4586647367879646e-03  3.5399426783913520e-04  4.7357067649547273e-03  1.2929640152116709e-02  2.1976536512325135e-02  2.9389713624389888e-02  3.3697074512103159e-02  3.4598597803194672e-02  3.2736026320938263e-02  2.9242022222536627e-02  2.5289779155082001e-02  2.1795655733715516e-02  1.9317273673697229e-02  1.8102292160435279e-02  1.8199177869985008e-02  1.9541903279290687e-02  2.1958919786847518e-02  2.5114753858948076e-02  2.8443956813364601e-02  3.1156911286795038e-02  3.2369397232919782e-02  3.1340237369411994e-02  2.7736599794901229e-02  2.1832666270213432e-02  1.4576229732072834e-02  7.4729682147431512e-03  2.2376033266425332e-03  2.4975675247225514e-04  2.0644144967431463e-03  7.2968003491584174e-03  1.4887975089436933e-02  2.3573097102818224e-02  3.0902390758631170e-02  4.8635173186915882e-02  5.4471194130705898e-02  5.6713567876629158e-02  5.3162458240906513e-02  4.4441032248848503e-02  3.2311994262524693e-02  1.9423491259681510e-02  8.6051865572387854e-03  2.1133941367795098e-03  1.1053455940731032e-03  5.4626714255407932e-03  1.3917931470132603e-02  2.4416573135534230e-02  3.4666842443240350e-02  4.2743302403050049e-02  4.7510722085116322e-02  4.8724232924454006e-02  4.6854647738356833e-02  4.2785296665202734e-02  3.7507336132003195e-02  3.1886360154081743e-02  2.6530521388726025e-02  2.1758851594522382e-02  1.7642872927361521e-02  1.4083388156184290e-02  1.0894954264899281e-02  7.8941205427490897e-03  5.0047045724062149e-03  2.3894134184857178e-03  5.9154825656603405e-04  6.3802251605551746e-04  4.0378877824014297e-03  1.2626377959816732e-02  2.8248765473956237e-02  5.2316979297102460e-02  8.5277623905630567e-02  1.2605083563685679e-01  1.7162867858526226e-01  2.1719331366576847e-01  2.5700697408188378e-01  2.8581461431435257e-01  3.0011268050113066e-01  2.9881232769174865e-01  2.8321951888154973e-01  2.5649608698204901e-01  2.2286349394230034e-01  1.8677940898586687e-01  1.5220488936792814e-01  1.2204546724243626e-01  9.7892469281955080e-02  8.0137191201256425e-02  6.8358386361648371e-02  6.1766373944143797e-02  5.9517395957706457e-02  6.0821405572007908e-02  6.4870841613155122e-02  7.0685585858912992e-02  7.6994531215272777e-02  8.2258298553942552e-02  8.4883761390367463e-02  8.3592565884943182e-02  7.7806704346034428e-02  6.7866971786737285e-02  5.4964539052937612e-02  4.0816542249965664e-02  2.7235218166361479e-02  1.5741573621925176e-02  7.3041147873259748e-03  2.2300394027090042e-03  2.1429220561971184e-04  5.2353721146567952e-04  2.2526138806045278e-03  4.5709512281984109e-03  6.8919351265363223e-03  8.9372910635578950e-03  1.0709680256962117e-02  1.2412706070790381e-02  1.4360126556999539e-02  1.6898543369384407e-02  2.0343357197904501e-02  2.4911930974673577e-02  3.0639976917882252e-02  3.7286074229858891e-02  4.4255589682079904e-02  5.0595935412094624e-02  5.5114439336277146e-02  5.6634003825196566e-02  5.4334560567312166e-02  4.8066352424603401e-02  3.8510843814815385e-02  2.7119352624791121e-02  1.5840250515736225e-02  6.7013568692401524e-03  1.3360995241088797e-03  5.6022783915835039e-04  4.1283609274792611e-03  1.0789819823155668e-02  1.8673821640608892e-02  2.5866726004468918e-02  3.0931802598645149e-02  3.3088525888259737e-02  1.1871631466462315e-02  1.7137630347195568e-02  2.3890559126655674e-02  3.0139080005709078e-02  3.4593897898186947e-02  3.6052389553050027e-02  3.3870791229207477e-02  2.8249206111581993e-02  2.0293071921470056e-02  1.1795680864917594e-02  4.8100793489080432e-03  1.1573445160917989e-03  2.0126323074184235e-03  7.6492149066866967e-03  1.7372816623641828e-02  2.9661991697731236e-02  4.2497074791772699e-02  5.3794415678373897e-02  6.1817899758597389e-02  6.5463424685774221e-02  6.4378620294748737e-02  5.8933372399537429e-02  5.0079165831750989e-02  3.9141002743802028e-02  2.7588439006288098e-02  1.6833211155157880e-02  8.0906653459494621e-03  2.3167805042366690e-03  2.0463834895020566e-04  2.2106585131818094e-03  8.5847969572171272e-03  1.9389423014009234e-02  3.4498062845002259e-02  5.3567518995275357e-02  7.5983266529224977e-02  1.0079517964249977e-01  1.2668497569260506e-01  1.5202056279506163e-01  1.7503153566715657e-01  1.9407876616469374e-01  2.0792786419404380e-01  2.1592790298556702e-01  2.1805048933086454e-01  2.1481087687970327e-01  2.0712566474581090e-01  1.9615329139496665e-01  1.8313761575373894e-01  1.6925952008276551e-01  1.5550613251126136e-01  1.4257844580470716e-01  1.3085626567348424e-01  1.2042136424140296e-01  1.1112071020101134e-01  1.0264602896414381e-01  9.4613506768338296e-02  8.6638219281381365e-02  7.8403155945004924e-02  6.9720315304599836e-02  6.0574706253423337e-02  5.1137308011844490e-02  4.1735969234618836e-02  3.2785847566621881e-02  2.4697614627977323e-02  1.7791346672348794e-02  1.2240237252447691e-02  8.0551665844758799e-03  5.1076659175896405e-03  3.1789276868288969e-03  2.0162038927001645e-03  1.3774812372795073e-03  1.0540258551778865e-03  8.7593813593312266e-04  7.1936936547983756e-04  5.3612750464139395e-04  4.1324670594152630e-04  6.4607037815360760e-04  1.7848689808663970e-03  4.6055764299424533e-03  9.9689314230004648e-03  1.8568411513721954e-02  3.0614099206307758e-02  4.5539559519964967e-02  6.1840774428325342e-02  7.7157617658404357e-02  8.8672743750640229e-02  9.3798020590198886e-02  9.0962001025122599e-02  8.0203672658547914e-02  6.3315739326561954e-02  4.3463301332776545e-02  2.4418705457299333e-02  9.6620088232487241e-03  1.5769279598898513e-03  9.1864787011997626e-04  6.6806732444667670e-03  1.6404029220128534e-02  2.6868137012570528e-02  3.5006943973025624e-02  3.8787883976876658e-02  3.7613044884332467e-02  3.3442040347902255e-02  5.6729722084392911e-04  1.3723194818621469e-03  5.4250356859036897e-03  1.3592160914306289e-02  2.5290318931433239e-02  3.8472258902385904e-02  5.0070094684804244e-02  5.6884740600364275e-02  5.6662835033223162e-02  4.8997182956128725e-02  3.5685553855058581e-02  2.0349037346001877e-02  7.4241127679306896e-03  9.2923555768857733e-04  3.4276993690222539e-03  1.5384103801246718e-02  3.4957788748946741e-02  5.8306598346881192e-02  8.0457725691172502e-02  9.6578713483957634e-02  1.0323576727387117e-01  9.9211839043406552e-02  8.5665043917982353e-02  6.5670421379232388e-02  4.3367441847884776e-02  2.2994999227955854e-02  8.0604818300857427e-03  7.9540578843909104e-04  1.9429524547955233e-03  1.0849084500182377e-02  2.5790526760740427e-02  4.4441844837734848e-02  6.4365274680538195e-02  8.3424354852222410e-02  1.0006494502975630e-01  1.1344515546928113e-01  1.2342032904753546e-01  1.3041081834354928e-01  1.3520128340701063e-01  1.3872914117046994e-01  1.4190835995504339e-01  1.4550873491304966e-01  1.5008463949955786e-01  1.5593298284487045e-01  1.6306101146775911e-01  1.7115676358971285e-01  1.7957107119896187e-01  1.8733223640167171e-01  1.9321714561440134e-01  1.9589372355500406e-01  1.9413109670403458e-01  1.8704877459819394e-01  1.7434927635429923e-01  1.5646216289212478e-01  1.3453957251563409e-01  1.1028868562986242e-01  8.5683382032162914e-02  6.2633096501955615e-02  4.2685068824836921e-02  2.6812055338670988e-02  1.5315923318675923e-02  7.8612261341729373e-03  3.6334448631820545e-03  1.5920052556396293e-03  7.5921136079836599e-04  4.6216428210021812e-04  4.4648406697761836e-04  8.1959371818253099e-04  1.8445438600103840e-03  3.6661200800902098e-03  6.0847203696802040e-03  8.4868847713789400e-03  9.9943507747950241e-03  9.8150640931405769e-03  7.6872338956567032e-03  4.2367757032393963e-03  1.0678670092179848e-03  4.9666897126660395e-04  4.9739827561725552e-03  1.6341175353266915e-02  3.5091045527290962e-02  5.9812364264105244e-02  8.7041247575977129e-02  1.1175790723581804e-01  1.2858169143793274e-01  1.3334394138580946e-01  1.2446045491266178e-01  1.0357238972346544e-01  7.5188522974164992e-02  4.5444179868929575e-02  2.0448620518448594e-02  4.7721343978485301e-03  4.3094521167191964e-04  6.5371384340482024e-03  1.9675745258243307e-02  3.4925963787993529e-02  4.7274501628914438e-02  5.3058111405511955e-02  5.1008144254899634e-02  4.2266930478995102e-02  3.1917045431548760e-02  1.0040710841011477e-02  4.1281345321104793e-03  4.2948065104905591e-04  4.2608421519784714e-03  1.7661029243513100e-02  3.9560477606341994e-02  6.5606561787581938e-02  8.9217222253723638e-02  1.0356758740351475e-01  1.0394310275689064e-01  8.9609337473081516e-02  6.4416417995282096e-02  3.5765266887319826e-02  1.2245773577199913e-02  9.9705220529408512e-04  5.8661159934278624e-03  2.6584525271695171e-02  5.8678256760202899e-02  9.4223167398502394e-02  1.2386489739793489e-01  1.3977560657302435e-01  1.38176099443