<?xml version="1.0"?>
<VTKFile type="UnstructuredGrid"  version="0.1"  >
<UnstructuredGrid>
<Piece  NumberOfPoints="20201" NumberOfCells="40000">
<Points>
<DataArray  type="Float64"  NumberOfComponents="3"  format="ascii">0 0 0  1 0 0  2 0 0  3 0 0  4 0 0  5 0 0  6 0 0  7 0 0  8 0 0  9 0 0  10 0 0  11 0 0  12 0 0  13 0 0  14 0 0  15 0 0  16 0 0  17 0 0  18 0 0  19 0 0  20 0 0  21 0 0  22 0 0  23 0 0  24 0 0  25 0 0  26 0 0  27 0 0  28 0 0  29 0 0  30 0 0  31 0 0  32 0 0  33 0 0  34 0 0  35 0 0  36 0 0  37 0 0  38 0 0  39 0 0  40 0 0  41 0 0  42 0 0  43 0 0  44 0 0  45 0 0  46 0 0  47 0 0  48 0 0  49 0 0  50 0 0  51 0 0  52 0 0  53 0 0  54 0 0  55 0 0  56 0 0  57 0 0  58 0 0  59 0 0  60 0 0  61 0 0  62 0 0  63 0 0  64 0 0  65 0 0  66 0 0  67 0 0  68 0 0  69 0 0  70 0 0  71 0 0  72 0 0  73 0 0  74 0 0  75 0 0  76 0 0  77 0 0  78 0 0  79 0 0  80 0 0  81 0 0  82 0 0  83 0 0  84 0 0  85 0 0  86 0 0  87 0 0  88 0 0  89 0 0  90 0 0  91 0 0  92 0 0  93 0 0  94 0 0  95 0 0  96 0 0  97 0 0  98 0 0  99 0 0  100 0 0  0 1 0  1 1 0  2 1 0  3 1 0  4 1 0  5 1 0  6 1 0  7 1 0  8 1 0  9 1 0  10 1 0  11 1 0  12 1 0  13 1 0  14 1 0  15 1 0  16 1 0  17 1 0  18 1 0  19 1 0  20 1 0  21 1 0  22 1 0  23 1 0  24 1 0  25 1 0  26 1 0  27 1 0  28 1 0  29 1 0  30 1 0  31 1 0  32 1 0  33 1 0  34 1 0  35 1 0  36 1 0  37 1 0  38 1 0  39 1 0  40 1 0  41 1 0  42 1 0  43 1 0  44 1 0  45 1 0  46 1 0  47 1 0  48 1 0  49 1 0  50 1 0  51 1 0  52 1 0  53 1 0  54 1 0  55 1 0  56 1 0  57 1 0  58 1 0  59 1 0  60 1 0  61 1 0  62 1 0  63 1 0  64 1 0  65 1 0  66 1 0  67 1 0  68 1 0  69 1 0  70 1 0  71 1 0  72 1 0  73 1 0  74 1 0  75 1 0  76 1 0  77 1 0  78 1 0  79 1 0  80 1 0  81 1 0  82 1 0  83 1 0  84 1 0  85 1 0  86 1 0  87 1 0  88 1 0  89 1 0  90 1 0  91 1 0  92 1 0  93 1 0  94 1 0  95 1 0  96 1 0  97 1 0  98 1 0  99 1 0  100 1 0  0 2 0  1 2 0  2 2 0  3 2 0  4 2 0  5 2 0  6 2 0  7 2 0  8 2 0  9 2 0  10 2 0  11 2 0  12 2 0  13 2 0  14 2 0  15 2 0  16 2 0  17 2 0  18 2 0  19 2 0  20 2 0  21 2 0  22 2 0  23 2 0  24 2 0  25 2 0  26 2 0  27 2 0  28 2 0  29 2 0  30 2 0  31 2 0  32 2 0  33 2 0  34 2 0  35 2 0  36 2 0  37 2 0  38 2 0  39 2 0  40 2 0  41 2 0  42 2 0  43 2 0  44 2 0  45 2 0  46 2 0  47 2 0  48 2 0  49 2 0  50 2 0  51 2 0  52 2 0  53 2 0  54 2 0  55 2 0  56 2 0  57 2 0  58 2 0  59 2 0  60 2 0  61 2 0  62 2 0  63 2 0  64 2 0  65 2 0  66 2 0  67 2 0  68 2 0  69 2 0  70 2 0  71 2 0  72 2 0  73 2 0  74 2 0  75 2 0  76 2 0  77 2 0  78 2 0  79 2 0  80 2 0  81 2 0  82 2 0  83 2 0  84 2 0  85 2 0  86 2 0  87 2 0  88 2 0  89 2 0  90 2 0  91 2 0  92 2 0  93 2 0  94 2 0  95 2 0  96 2 0  97 2 0  98 2 0  99 2 0  100 2 0  0 3 0  1 3 0  2 3 0  3 3 0  4 3 0  5 3 0  6 3 0  7 3 0  8 3 0  9 3 0  10 3 0  11 3 0  12 3 0  13 3 0  14 3 0  15 3 0  16 3 0  17 3 0  18 3 0  19 3 0  20 3 0  21 3 0  22 3 0  23 3 0  24 3 0  25 3 0  26 3 0  27 3 0  28 3 0  29 3 0  30 3 0  31 3 0  32 3 0  33 3 0  34 3 0  35 3 0  36 3 0  37 3 0  38 3 0  39 3 0  40 3 0  41 3 0  42 3 0  43 3 0  44 3 0  45 3 0  46 3 0  47 3 0  48 3 0  49 3 0  50 3 0  51 3 0  52 3 0  53 3 0  54 3 0  55 3 0  56 3 0  57 3 0  58 3 0  59 3 0  60 3 0  61 3 0  62 3 0  63 3 0  64 3 0  65 3 0  66 3 0  67 3 0  68 3 0  69 3 0  70 3 0  71 3 0  72 3 0  73 3 0  74 3 0  75 3 0  76 3 0  77 3 0  78 3 0  79 3 0  80 3 0  81 3 0  82 3 0  83 3 0  84 3 0  85 3 0  86 3 0  87 3 0  88 3 0  89 3 0  90 3 0  91 3 0  92 3 0  93 3 0  94 3 0  95 3 0  96 3 0  97 3 0  98 3 0  99 3 0  100 3 0  0 4 0  1 4 0  2 4 0  3 4 0  4 4 0  5 4 0  6 4 0  7 4 0  8 4 0  9 4 0  10 4 0  11 4 0  12 4 0  13 4 0  14 4 0  15 4 0  16 4 0  17 4 0  18 4 0  19 4 0  20 4 0  21 4 0  22 4 0  23 4 0  24 4 0  25 4 0  26 4 0  27 4 0  28 4 0  29 4 0  30 4 0  31 4 0  32 4 0  33 4 0  34 4 0  35 4 0  36 4 0  37 4 0  38 4 0  39 4 0  40 4 0  41 4 0  42 4 0  43 4 0  44 4 0  45 4 0  46 4 0  47 4 0  48 4 0  49 4 0  50 4 0  51 4 0  52 4 0  53 4 0  54 4 0  55 4 0  56 4 0  57 4 0  58 4 0  59 4 0  60 4 0  61 4 0  62 4 0  63 4 0  64 4 0  65 4 0  66 4 0  67 4 0  68 4 0  69 4 0  70 4 0  71 4 0  72 4 0  73 4 0  74 4 0  75 4 0  76 4 0  77 4 0  78 4 0  79 4 0  80 4 0  81 4 0  82 4 0  83 4 0  84 4 0  85 4 0  86 4 0  87 4 0  88 4 0  89 4 0  90 4 0  91 4 0  92 4 0  93 4 0  94 4 0  95 4 0  96 4 0  97 4 0  98 4 0  99 4 0  100 4 0  0 5 0  1 5 0  2 5 0  3 5 0  4 5 0  5 5 0  6 5 0  7 5 0  8 5 0  9 5 0  10 5 0  11 5 0  12 5 0  13 5 0  14 5 0  15 5 0  16 5 0  17 5 0  18 5 0  19 5 0  20 5 0  21 5 0  22 5 0  23 5 0  24 5 0  25 5 0  26 5 0  27 5 0  28 5 0  29 5 0  30 5 0  31 5 0  32 5 0  33 5 0  34 5 0  35 5 0  36 5 0  37 5 0  38 5 0  39 5 0  40 5 0  41 5 0  42 5 0  43 5 0  44 5 0  45 5 0  46 5 0  47 5 0  48 5 0  49 5 0  50 5 0  51 5 0  52 5 0  53 5 0  54 5 0  55 5 0  56 5 0  57 5 0  58 5 0  59 5 0  60 5 0  61 5 0  62 5 0  63 5 0  64 5 0  65 5 0  66 5 0  67 5 0  68 5 0  69 5 0  70 5 0  71 5 0  72 5 0  73 5 0  74 5 0  75 5 0  76 5 0  77 5 0  78 5 0  79 5 0  80 5 0  81 5 0  82 5 0  83 5 0  84 5 0  85 5 0  86 5 0  87 5 0  88 5 0  89 5 0  90 5 0  91 5 0  92 5 0  93 5 0  94 5 0  95 5 0  96 5 0  97 5 0  98 5 0  99 5 0  100 5 0  0 6 0  1 6 0  2 6 0  3 6 0  4 6 0  5 6 0  6 6 0  7 6 0  8 6 0  9 6 0  10 6 0  11 6 0  12 6 0  13 6 0  14 6 0  15 6 0  16 6 0  17 6 0  18 6 0  19 6 0  20 6 0  21 6 0  22 6 0  23 6 0  24 6 0  25 6 0  26 6 0  27 6 0  28 6 0  29 6 0  30 6 0  31 6 0  32 6 0  33 6 0  34 6 0  35 6 0  36 6 0  37 6 0  38 6 0  39 6 0  40 6 0  41 6 0  42 6 0  43 6 0  44 6 0  45 6 0  46 6 0  47 6 0  48 6 0  49 6 0  50 6 0  51 6 0  52 6 0  53 6 0  54 6 0  55 6 0  56 6 0  57 6 0  58 6 0  59 6 0  60 6 0  61 6 0  62 6 0  63 6 0  64 6 0  65 6 0  66 6 0  67 6 0  68 6 0  69 6 0  70 6 0  71 6 0  72 6 0  73 6 0  74 6 0  75 6 0  76 6 0  77 6 0  78 6 0  79 6 0  80 6 0  81 6 0  82 6 0  83 6 0  84 6 0  85 6 0  86 6 0  87 6 0  88 6 0  89 6 0  90 6 0  91 6 0  92 6 0  93 6 0  94 6 0  95 6 0  96 6 0  97 6 0  98 6 0  99 6 0  100 6 0  0 7 0  1 7 0  2 7 0  3 7 0  4 7 0  5 7 0  6 7 0  7 7 0  8 7 0  9 7 0  10 7 0  11 7 0  12 7 0  13 7 0  14 7 0  15 7 0  16 7 0  17 7 0  18 7 0  19 7 0  20 7 0  21 7 0  22 7 0  23 7 0  24 7 0  25 7 0  26 7 0  27 7 0  28 7 0  29 7 0  30 7 0  31 7 0  32 7 0  33 7 0  34 7 0  35 7 0  36 7 0  37 7 0  38 7 0  39 7 0  40 7 0  41 7 0  42 7 0  43 7 0  44 7 0  45 7 0  46 7 0  47 7 0  48 7 0  49 7 0  50 7 0  51 7 0  52 7 0  53 7 0  54 7 0  55 7 0  56 7 0  57 7 0  58 7 0  59 7 0  60 7 0  61 7 0  62 7 0  63 7 0  64 7 0  65 7 0  66 7 0  67 7 0  68 7 0  69 7 0  70 7 0  71 7 0  72 7 0  73 7 0  74 7 0  75 7 0  76 7 0  77 7 0  78 7 0  79 7 0  80 7 0  81 7 0  82 7 0  83 7 0  84 7 0  85 7 0  86 7 0  87 7 0  88 7 0  89 7 0  90 7 0  91 7 0  92 7 0  93 7 0  94 7 0  95 7 0  96 7 0  97 7 0  98 7 0  99 7 0  100 7 0  0 8 0  1 8 0  2 8 0  3 8 0  4 8 0  5 8 0  6 8 0  7 8 0  8 8 0  9 8 0  10 8 0  11 8 0  12 8 0  13 8 0  14 8 0  15 8 0  16 8 0  17 8 0  18 8 0  19 8 0  20 8 0  21 8 0  22 8 0  23 8 0  24 8 0  25 8 0  26 8 0  27 8 0  28 8 0  29 8 0  30 8 0  31 8 0  32 8 0  33 8 0  34 8 0  35 8 0  36 8 0  37 8 0  38 8 0  39 8 0  40 8 0  41 8 0  42 8 0  43 8 0  44 8 0  45 8 0  46 8 0  47 8 0  48 8 0  49 8 0  50 8 0  51 8 0  52 8 0  53 8 0  54 8 0  55 8 0  56 8 0  57 8 0  58 8 0  59 8 0  60 8 0  61 8 0  62 8 0  63 8 0  64 8 0  65 8 0  66 8 0  67 8 0  68 8 0  69 8 0  70 8 0  71 8 0  72 8 0  73 8 0  74 8 0  75 8 0  76 8 0  77 8 0  78 8 0  79 8 0  80 8 0  81 8 0  82 8 0  83 8 0  84 8 0  85 8 0  86 8 0  87 8 0  88 8 0  89 8 0  90 8 0  91 8 0  92 8 0  93 8 0  94 8 0  95 8 0  96 8 0  97 8 0  98 8 0  99 8 0  100 8 0  0 9 0  1 9 0  2 9 0  3 9 0  4 9 0  5 9 0  6 9 0  7 9 0  8 9 0  9 9 0  10 9 0  11 9 0  12 9 0  13 9 0  14 9 0  15 9 0  16 9 0  17 9 0  18 9 0  19 9 0  20 9 0  21 9 0  22 9 0  23 9 0  24 9 0  25 9 0  26 9 0  27 9 0  28 9 0  29 9 0  30 9 0  31 9 0  32 9 0  33 9 0  34 9 0  35 9 0  36 9 0  37 9 0  38 9 0  39 9 0  40 9 0  41 9 0  42 9 0  43 9 0  44 9 0  45 9 0  46 9 0  47 9 0  48 9 0  49 9 0  50 9 0  51 9 0  52 9 0  53 9 0  54 9 0  55 9 0  56 9 0  57 9 0  58 9 0  59 9 0  60 9 0  61 9 0  62 9 0  63 9 0  64 9 0  65 9 0  66 9 0  67 9 0  68 9 0  69 9 0  70 9 0  71 9 0  72 9 0  73 9 0  74 9 0  75 9 0  76 9 0  77 9 0  78 9 0  79 9 0  80 9 0  81 9 0  82 9 0  83 9 0  84 9 0  85 9 0  86 9 0  87 9 0  88 9 0  89 9 0  90 9 0  91 9 0  92 9 0  93 9 0  94 9 0  95 9 0  96 9 0  97 9 0  98 9 0  99 9 0  100 9 0  0 10 0  1 10 0  2 10 0  3 10 0  4 10 0  5 10 0  6 10 0  7 10 0  8 10 0  9 10 0  10 10 0  11 10 0  12 10 0  13 10 0  14 10 0  15 10 0  16 10 0  17 10 0  18 10 0  19 10 0  20 10 0  21 10 0  22 10 0  23 10 0  24 10 0  25 10 0  26 10 0  27 10 0  28 10 0  29 10 0  30 10 0  31 10 0  32 10 0  33 10 0  34 10 0  35 10 0  36 10 0  37 10 0  38 10 0  39 10 0  40 10 0  41 10 0  42 10 0  43 10 0  44 10 0  45 10 0  46 10 0  47 10 0  48 10 0  49 10 0  50 10 0  51 10 0  52 10 0  53 10 0  54 10 0  55 10 0  56 10 0  57 10 0  58 10 0  59 10 0  60 10 0  61 10 0  62 10 0  63 10 0  64 10 0  65 10 0  66 10 0  67 10 0  68 10 0  69 10 0  70 10 0  71 10 0  72 10 0  73 10 0  74 10 0  75 10 0  76 10 0  77 10 0  78 10 0  79 10 0  80 10 0  81 10 0  82 10 0  83 10 0  84 10 0  85 10 0  86 10 0  87 10 0  88 10 0  89 10 0  90 10 0  91 10 0  92 10 0  93 10 0  94 10 0  95 10 0  96 10 0  97 10 0  98 10 0  99 10 0  100 10 0  0 11 0  1 11 0  2 11 0  3 11 0  4 11 0  5 11 0  6 11 0  7 11 0  8 11 0  9 11 0  10 11 0  11 11 0  12 11 0  13 11 0  14 11 0  15 11 0  16 11 0  17 11 0  18 11 0  19 11 0  20 11 0  21 11 0  22 11 0  23 11 0  24 11 0  25 11 0  26 11 0  27 11 0  28 11 0  29 11 0  30 11 0  31 11 0  32 11 0  33 11 0  34 11 0  35 11 0  36 11 0  37 11 0  38 11 0  39 11 0  40 11 0  41 11 0  42 11 0  43 11 0  44 11 0  45 11 0  46 11 0  47 11 0  48 11 0  49 11 0  50 11 0  51 11 0  52 11 0  53 11 0  54 11 0  55 11 0  56 11 0  57 11 0  58 11 0  59 11 0  60 11 0  61 11 0  62 11 0  63 11 0  64 11 0  65 11 0  66 11 0  67 11 0  68 11 0  69 11 0  70 11 0  71 11 0  72 11 0  73 11 0  74 11 0  75 11 0  76 11 0  77 11 0  78 11 0  79 11 0  80 11 0  81 11 0  82 11 0  83 11 0  84 11 0  85 11 0  86 11 0  87 11 0  88 11 0  89 11 0  90 11 0  91 11 0  92 11 0  93 11 0  94 11 0  95 11 0  96 11 0  97 11 0  98 11 0  99 11 0
[...]
<PointData  Scalars="f_3357-0"> 
<DataArray  type="Float64"  Name="f_3357-0"  format="ascii">6.2030101017839889e-01  6.1863413384745169e-01  6.1402360906130737e-01  6.0672803502699779e-01  5.9696483856589910e-01  5.8513017555071167e-01  5.7178005159758183e-01  5.5756118396079513e-01  5.4316093061572868e-01  5.2926543593496433e-01  5.1651533781173109e-01  5.0546417129930388e-01  4.9654747900717533e-01  4.9006538020143831e-01  4.8617651021178043e-01  4.8489964726138129e-01  4.8612016115855772e-01  4.8960011070476656e-01  4.9499231923543702e-01  5.0185950764614873e-01  5.0969929737479458e-01  5.1797464932141857e-01  5.2614756118086881e-01  5.3371246580955822e-01  5.4022553011342356e-01  5.4532708261856966e-01  5.4875609995781316e-01  5.5035719785879667e-01  5.5008135524791713e-01  5.4798162593409949e-01  5.4420467798363492e-01  5.3897853158500519e-01  5.3259663322613759e-01  5.2539855154419013e-01  5.1774808430085473e-01  5.1001022937765728e-01  5.0252898551187752e-01  4.9560803735136566e-01  4.8949596886124203e-01  4.8437690632620911e-01  4.8036671018811034e-01  4.7751425124389807e-01  4.7580699672920185e-01  4.7518002797218151e-01  4.7552759316025806e-01  4.7671627472391886e-01  4.7859879331529187e-01  4.8102740846066233e-01  4.8386586548198390e-01  4.8699892742288592e-01  4.9033873598043837e-01  4.9382754607954721e-01  4.9743672892244678e-01  5.0116228736960189e-01  5.0501743572285851e-01  5.0902304044077873e-01  5.1319688971060984e-01  5.1754285637640107e-01  5.2204104112876404e-01  5.2663993056373770e-01  5.3125147372843839e-01  5.3574976446570211e-01  5.3997371298824148e-01  5.4373371379281066e-01  5.4682191235000610e-01  5.4902531076146155e-01  5.5014070748598343e-01  5.4999038199998451e-01  5.4843749806129727e-01  5.4540033761119733e-01  5.4086459012198829e-01  5.3489292228803498e-01  5.2763091341425650e-01  5.1930823548171312e-01  5.1023387191535663e-01  5.0078446026894985e-01  4.9138568333846078e-01  4.8248791191481971e-01  4.7453856044820081e-01  4.6795425733422374e-01  4.6309562422294964e-01  4.6024639136679374e-01  4.5959731621049099e-01  4.6123448674076717e-01  4.6513136508363895e-01  4.7114434657786880e-01  4.7901247821088233e-01  4.8836295985588873e-01  4.9872456817052918e-01  5.0955039330072416e-01  5.2024892118533406e-01  5.3022029030661744e-01  5.3889658834223253e-01  5.4578989534846023e-01  5.5053699057132000e-01  5.5287102443431102e-01  5.5244876104183271e-01  5.4882170734024494e-01  5.4241263603727752e-01  5.3629070867493367e-01  5.3443786620078959e-01  6.1937645741341818e-01  6.1774640849749340e-01  6.1323147520651378e-01  6.0606414781921003e-01  5.9644642536113435e-01  5.8476919390237647e-01  5.7158498240380962e-01  5.5753512299154295e-01  5.4330007020004478e-01  5.2955886496941251e-01  5.1694585308088414e-01  5.0600967108475514e-01  4.9718254831702913e-01  4.9076274670951264e-01  4.8690819946777220e-01  4.8563783736721922e-01  4.8683784993523310e-01  4.9027173606374419e-01  4.9559443228452399e-01  5.0237151537663927e-01  5.1010419795588924e-01  5.1825961475437821e-01  5.2630421364322011e-01  5.3373675521808472e-01  5.4011722348432978e-01  5.4508897071712303e-01  5.4839307444940166e-01  5.4987534571036711e-01  5.4948717582486672e-01  5.4728142554869352e-01  5.4340415330826808e-01  5.3808252312959637e-01  5.3160901292926621e-01  5.2432220342091596e-01  5.1658494322906900e-01  5.0876135821609869e-01  5.0119468948069257e-01  4.9418802949954682e-01  4.8798960522079593e-01  4.8278350207358506e-01  4.7868593176354057e-01  4.7574655973960944e-01  4.7395410087583290e-01  4.7324529504996299e-01  4.7351636544577136e-01  4.7463604808842647e-01  4.7645923190162404e-01  4.7884019170105369e-01  4.8164438640345575e-01  4.8475787939548431e-01  4.8809363542795314e-01  4.9159424035492233e-01  4.9523093314626709e-01  4.9899918442284341e-01  5.0291136253964230e-01  5.0698727305786151e-01  5.1124353000815204e-01  5.1568281542766725e-01  5.2028410791317403e-01  5.2499491091718942e-01  5.2972638297742358e-01  5.3435205769333349e-01  5.3871053795645285e-01  5.4261217139662654e-01  5.4584930665605236e-01  5.4820936486391103e-01  5.4948971372521915e-01  5.4951324781095523e-01  5.4814364470561283e-01  5.4529941140946514e-01  5.4096595801138014e-01  5.3520494933570029e-01  5.2816006178882124e-01  5.2005807948791472e-01  5.1120417869403145e-01  5.0197051555781291e-01  4.9277801874720117e-01  4.8407250437501687e-01  4.7629744973778093e-01  4.6986641585759636e-01  4.6513786418575981e-01  4.6239412420510306e-01  4.6182506532693679e-01  4.6351615861497414e-01  4.6744037543530131e-01  4.7345376236024633e-01  4.8129536200629647e-01  4.9059307319947798e-01  5.0087748745692329e-01  5.1160492718243100e-01  5.2218854850531815e-01  5.3203423665279570e-01  5.4058018535357211e-01  5.4734415192766062e-01  5.5196809796130031e-01  5.5419114915292600e-01  5.5367578616053270e-01  5.4996184309309459e-01  5.4339840891977964e-01  5.3688199732157971e-01  5.3450709625568327e-01  6.1657880323904624e-01  6.1504267998723927e-01  6.1077347972596474e-01  6.0393962243121602e-01  5.9470477193573057e-01  5.8344644776977539e-01  5.7070780118229558e-01  5.5711545214635882e-01  5.4333097586097734e-01  5.3001385122484956e-01  5.1778082934127079e-01  5.0716650568351795e-01  4.9859326242197338e-01  4.9235353941369908e-01  4.8860283009920741e-01  4.8736030622429438e-01  4.8851460450292133e-01  4.9183370718959396e-01  4.9697910851029820e-01  5.0352506436309785e-01  5.1098342306950073e-01  5.1883338612787377e-01  5.2655401661137280e-01  5.3365616858739928e-01  5.3971039792051867e-01  5.4436839948753835e-01  5.4737704632461570e-01  5.4858543622276612e-01  5.4794602293193317e-01  5.4551091350285419e-01  5.4142403359590829e-01  5.3590944438329147e-01  5.2925590751678264e-01  5.2179797775643877e-01  5.1389443297047177e-01  5.0590552958731883e-01  4.9817108463210202e-01  4.9099145915751813e-01  4.8461308234504474e-01  4.7921938782356982e-01  4.7492723563598094e-01  4.7178830626714641e-01  4.6979465207826582e-01  4.6888750612866387e-01  4.6896845517004315e-01  4.6991208736626860e-01  4.7157919335728399e-01  4.7382955439588148e-01  4.7653334370809503e-01  4.7958024352968520e-01  4.8288556076947170e-01  4.8639289601812419e-01  4.9007324591239604e-01  4.9392075166290478e-01  4.9794560744990346e-01  5.0216488574574103e-01  5.0659221014358091e-01  5.1122730669097360e-01  5.1604649267471048e-01  5.2099511702551682e-01  5.2598284435593612e-01  5.3088246652219329e-01  5.3553262673264734e-01  5.3974446505326457e-01  5.4331178502963939e-01  5.4602397221979260e-01  5.4768064498370239e-01  5.4810693296338431e-01  5.4716834797982328e-01  5.4478436621528825e-01  5.4093998103017626e-01  5.3569452778059479e-01  5.2918699576477057e-01  5.2163688462185875e-01  5.1333958711044303e-01  5.0465550056815878e-01  4.9599274298406221e-01  4.8778441765911090e-01  4.8046248263290647e-01  4.7443094060083257e-01  4.7004094753004566e-01  4.6756963007453856e-01  4.6720334227168497e-01  4.6902528256588089e-01  4.7300713510004588e-01  4.7900472557513146e-01  4.8675841199730380e-01  4.9589971321353171e-01  5.0596595396024235e-01  5.1642377282474838e-01  5.2670000129533567e-01  5.3621646577329296e-01  5.4442770172728228e-01  5.5086625989703097e-01  5.5518729190567506e-01  5.5714507689860548e-01  5.5641773152705387e-01  5.5252312979610874e-01  5.4566216564008441e-01  5.3849996942946632e-01  5.3553654321192012e-01  6.1189538670669297e-01  6.1048172471628714e-01  6.0653714572843265e-01  6.0015297999031825e-01  5.9144592928165374e-01  5.8077611602357371e-01  5.6867280655709007e-01  5.5574080867316489e-01  5.4261392338878145e-01  5.2992265743430267e-01  5.1825717687383233e-01  5.0813016510747600e-01  4.9994793431206608e-01  4.9399283359215707e-01  4.9041568469687147e-01  4.8923563796063468e-01  4.9034534789037859e-01  4.9352051618759946e-01  4.9843388914034126e-01  5.0467427424201639e-01  5.1177082772266014e-01  5.1922182394064820e-01  5.2652578247277038e-01  5.3321187452201380e-01  5.3886649305919854e-01  5.4315377863036129e-01  5.4582925440726515e-01  5.4674689835552692e-01  5.4586057740246041e-01  5.4322078103259441e-01  5.3896726541821083e-01  5.3331786036718321e-01  5.2655354596998516e-01  5.1900010377367578e-01  5.1100716553001624e-01  5.0292613091977889e-01  4.9508890658894145e-01  4.8778947540209699e-01  4.8126987536892857e-01  4.7571142344804612e-01  4.7123124782495907e-01  4.6788362292063590e-01  4.6566530675643747e-01  4.6452399581937931e-01  4.6436902232802646e-01  4.6508343176259348e-01  4.6653656075924288e-01  4.6859620423250009e-01  4.7113945956913128e-01  4.7406140732489305e-01  4.7728095272172044e-01  4.8074340194287168e-01  4.8441965005948417e-01  4.8830217202675014e-01  4.9239829688944531e-01  4.9672148180717335e-01  5.0128147293464576e-01  5.0607434027438702e-01  5.1107340381245148e-01  5.1622202855519350e-01  5.2142915196330364e-01  5.2656820974184892e-01  5.3147983917805786e-01  5.3597837494772627e-01  5.3986175263155622e-01  5.4292407106709351e-01  5.4496981329391747e-01  5.4582863531659387e-01  5.4536969437263572e-01  5.4351463994848970e-01  5.4024853923089844e-01  5.3562807458508988e-01  5.2978630517446290e-01  5.2293317523698490e-01  5.1535090653016502e-01  5.0738360862232723e-01  4.9942101026359648e-01  4.9187711894619701e-01  4.8516557925110748e-01  4.7967411741272464e-01  4.7574044097398149e-01  4.7363134324617073e-01  4.7352588326823170e-01  4.7550280119349986e-01  4.7953207313276042e-01  4.8547075996756883e-01  4.9306390143462281e-01  5.0195181343502759e-01  5.1168524798444537e-01  5.2174886729615710e-01  5.3159125225864345e-01  5.4065793948041785e-01  5.4842665493729104e-01  5.5445018781390432e-01  5.5840096533308214e-01  5.6005251205661766e-01  5.5910505309409086e-01  5.5506456032270146e-01  5.4800522011677777e-01  5.4041663513770444e-01  5.3707912418219683e-01  6.0539520877607644e-01  6.0411624001646569e-01  6.0053469709341911e-01  5.9466684028452810e-01  5.8658223465657411e-01  5.7662115401384240e-01  5.6529432407746460e-01  5.5317832693407176e-01  5.4087180720281403e-01  5.2896860491095155e-01  5.1802478334769808e-01  5.0852425899369991e-01  5.0085157971842409e-01  4.9527488149488619e-01  4.9193801443797780e-01  4.9085971092088099e-01  4.9193809008019301e-01  4.9495969059659523e-01  4.9961302675235997e-01  5.0550700731031695e-01  5.1219424368171607e-01  5.1919836585985912e-01  5.2604334139728415e-01  5.3228201987752877e-01  5.3752113314725425e-01  5.4144077662563572e-01  5.4380756810203867e-01  5.4448169760732557e-01  5.4341861866924202e-01  5.4066617376327264e-01  5.3635769585674931e-01  5.3070134465951302e-01  5.2396583613213255e-01  5.1646292154336926e-01  5.0852744487820611e-01  5.0049638372848937e-01  4.9268869673771820e-01  4.8538783748564107e-01  4.7882839943005379e-01  4.7318768007383200e-01  4.6858224668881560e-01  4.6506905410327015e-01  4.6265037592383357e-01  4.6128171316800798e-01  4.6088184012947875e-01  4.6134415621958474e-01  4.6254850196839487e-01  4.6437257886756150e-01  4.6670212164132979e-01  4.6943904359304595e-01  4.7250692936228150e-01  4.7585347882665585e-01  4.7944978457920545e-01  4.8328661725528699e-01  4.8736816348112366e-01  4.9170388488929356e-01  4.9629932911884739e-01  5.0114681985629916e-01  5.0621698280639804e-01  5.1145202820999336e-01  5.1676160438970198e-01  5.2202185284469660e-01  5.2707802819491612e-01  5.3175070588295448e-01  5.3584522454326711e-01  5.3916366275271665e-01  5.4151840299320186e-01  5.4274623587256943e-01  5.4272200187790809e-01  5.4137090178086689e-01  5.3867874903635327e-01  5.3469951751247369e-01  5.2955952986841259e-01  5.2345757548504235e-01  5.1666024731407501e-01  5.0949198350510794e-01  5.0231979173385766e-01  4.9553338725531865e-01  4.8952227579943963e-01  4.8465184362608449e-01  4.8124054681084838e-01  4.7953983131600636e-01  4.7971772006131869e-01  4.8184641597207833e-01  4.8589403742073201e-01  4.9172077975632927e-01  4.9908024758398317e-01  5.0762712964437962e-01  5.1693234969272439e-01  5.2650582205868890e-01  5.3582490020023699e-01  5.4436512388573821e-01  5.5163266607030925e-01  5.5720454417360410e-01  5.6077287167839385e-01  5.6213144558413852e-01  5.6100558630744068e-01  5.5690477044691666e-01  5.4981377629182437e-01  5.4205449205828427e-01  5.3851088033092198e-01  5.9722155131698884e-01  5.9608477868401022e-01  5.9289345927839043e-01  5.8759591405533695e-01  5.8021655657302973e-01  5.7107268941067968e-01  5.6065080409410517e-01  5.4949257679166719e-01  5.3815448704766233e-01  5.2718669215406977e-01  5.1710442564553905e-01  5.0835675940780345e-01  5.0130143465913279e-01  4.9618870094381445e-01  4.9315335418752887e-01  4.9221330532995949e-01  4.9327337708144614e-01  4.9613368261753399e-01  5.0050250369919214e-01  5.0601379605013075e-01  5.1224914649579123e-01  5.1876324512892458e-01  5.2511102996878156e-01  5.3087406058760511e-01  5.3568371091149825e-01  5.3923943633872440e-01  5.4132134135339127e-01  5.4179713255649586e-01  5.4062402298573675e-01  5.3784623463071646e-01  5.3358858126014697e-01  5.2804641490903714e-01  5.2147216637563842e-01  5.1415889770494272e-01  5.0642169034521500e-01  4.9857817196092524e-01  4.9092982251032091e-01  4.8374571692474100e-01  4.7725001802622719e-01  4.7161395137327200e-01  4.6695237787551713e-01  4.6332459933614822e-01  4.6073875021571770e-01  4.5915901237028667e-01  4.5851486243077622e-01  4.5871155848217260e-01  4.5964106449816505e-01  4.6119260372991955e-01  4.6326205225973688e-01  4.6575945902083937e-01  4.6861412344095810e-01  4.7177687170946031e-01  4.7521942567727876e-01  4.7893102390340669e-01  4.8291270204794762e-01  4.8716984621388415e-01  4.9170378379700302e-01  4.9650326610404633e-01  5.0153672478130007e-01  5.0674615015099300e-01  5.1204334120579065e-01  5.1730910826272869e-01  5.2239576618894989e-01  5.2713294757029627e-01  5.3133642311867213e-01  5.3481929609219669e-01  5.3740470102411420e-01  5.3893902794331872e-01  5.3930471350249976e-01  5.3843174775678515e-01  5.3630717287177410e-01  5.3298193831231433e-01  5.2857450371142467e-01  5.2327057693247070e-01  5.1731842266499029e-01  5.1101937958456622e-01  5.0471364941862873e-01  4.9876203515686524e-01  4.9352494518679152e-01  4.8934041206271278e-01  4.8650292624422870e-01  4.8524455886498263e-01  4.8571932699401771e-01  4.8799129762691484e-01  4.9202672727041413e-01  4.9769064009457559e-01  5.0474854877265496e-01  5.1287427565034360e-01  5.2166468635156460e-01  5.3066120502165015e-01  5.3937618570731760e-01  5.4732097904747790e-01  5.5403535344574939e-01  5.5912475869046430e-01  5.6230358071733799e-01  5.6338627424666243e-01  5.6212412327151640e-01  5.5804086805648467e-01  5.5105526361646251e-01  5.4331311920732150e-01  5.3967725886774320e-01  5.8755853348428522e-01  5.8656943514991400e-01  5.8379069345744750e-01  5.7911176720998692e-01  5.7251419329326492e-01  5.6428824854669224e-01  5.5488981092988898e-01  5.4481903639676288e-01  5.3458381942987854e-01  5.2468445322775215e-01  5.1558953417114728e-01  5.0770808789665600e-01  5.0136671692127788e-01  4.9679457276909006e-01  4.9411550193070686e-01  4.9334611986864135e-01  4.9439889765491274e-01  4.9708978064938197e-01  5.0115019393220728e-01  5.0624337176777867e-01  5.1198466085813388e-01  5.1796483539281368e-01  5.2377476845831372e-01  5.2902936462188654e-01  5.3338870982040609e-01  5.3657492788220473e-01  5.3838400584388968e-01  5.3869255033705021e-01  5.3745985916656158e-01  5.3472580852951890e-01  5.3060497701241727e-01  5.2527731412799017e-01  5.1897565445473148e-01  5.1197055152114268e-01  5.0455323724595846e-01  4.9701788796015378e-01  4.8964463146064763e-01  4.8268472682670149e-01  4.7634906146908723e-01  4.7080063031993841e-01  4.6615114534295876e-01  4.6246150228532767e-01  4.5974556256285415e-01  4.5797657450365492e-01  4.5709550711591906e-01  4.5702055183081536e-01  4.5765703875407604e-01  4.5890701562543579e-01  4.6067776767585639e-01  4.6288863458702489e-01  4.6547561704896889e-01  4.6839345550062295e-01  4.7161508969388333e-01  4.7512864447669650e-01  4.7893230897823069e-01  4.8302766246627082e-01  4.8741213717421072e-01  4.9207139009899542e-01  4.9697238070335908e-01  5.0205791960188240e-01  5.0724336304214368e-01  5.1241597551898721e-01  5.1743726620887442e-01  5.2214833215056122e-01  5.2637793839063229e-01  5.2995277753714209e-01  5.3270913028231914e-01  5.3450503285679485e-01  5.3523205354373926e-01  5.3482585890102874e-01  5.3327486009964786e-01  5.3062632334677207e-01  5.2698938625921532e-01  5.2253446576585538e-01  5.1748863084416641e-01  5.1212671586510117e-01  5.0675830913693110e-01  5.0171123556064368e-01  4.9731264488955590e-01  4.9386915609398990e-01  4.9164757390817548e-01  4.9085748373356619e-01  4.9163666874407730e-01  4.9403995812896184e-01  4.9803194875310386e-01  5.0348407938210960e-01  5.1017669283359801e-01  5.1780681638828252e-01  5.2600216834824243e-01  5.3434105472797544e-01  5.4237629660239262e-01  5.4966033468714770e-01  5.5577142960121162e-01  5.6034767904508520e-01  5.6312853605639279e-01  5.6394971940040051e-01  5.6258883280993155e-01  5.5859094876136350e-01  5.5182340545671515e-01  5.4424519727299747e-01  5.4060369350223336e-01  5.7661839055289632e-01  5.7577930408881106e-01  5.7342728979111945e-01  5.6940406434668323e-01  5.6365123108080739e-01  5.5642764521893284e-01  5.4815214938255918e-01  5.3927742746979268e-01  5.3025747474872020e-01  5.2153779046078119e-01  5.1353573645669393e-01  5.0661612071346329e-01  5.0107082285467086e-01  4.9710510738695862e-01  4.9483009094105279e-01  4.9426047647569782e-01  4.9531697845727335e-01  4.9783311197594959e-01  5.0156615600886545e-01  5.0621207366292997e-01  5.1142390571931151e-01  5.1683268319986164e-01  5.2206940454086048e-01  5.2678632569872652e-01  5.3067587446905118e-01  5.3348591093102127e-01  5.3503064479716445e-01  5.3519706921900634e-01  5.3394713002225502e-01  5.3131599164119514e-01  5.2740675780185098e-01  5.2238197012674170e-01  5.1645224293753167e-01  5.0986254894655170e-01  5.0287692920516747e-01  4.9576267580831646e-01  4.8877520941539349e-01  4.8214485276714469e-01  4.7606646805481195e-01  4.7069254563394158e-01  4.6612991425384642e-01  4.6243988631999400e-01  4.5964140336385217e-01  4.5771660298142958e-01  4.5661815694198249e-01  4.5627769753265357e-01  4.5661463688844411e-01  4.5754469114623914e-01  4.5898745825878923e-01  4.6087247747678878e-01  4.6314332562921046e-01  4.6575947564232395e-01  4.6869584165074984e-01  4.7194014221397773e-01  4.7548840750477511e-01  4.7933912022895137e-01  4.8348660138314603e-01  4.8791432440572730e-01  4.9258886274740077e-01  4.9745514614428354e-01  5.0243361921112561e-01  5.0741976065746552e-01  5.1228623239472593e-01  5.1688769242880772e-01  5.2106804444657850e-01  5.2466964533927296e-01  5.2754379082027147e-01  5.2956168148022009e-01  5.3062504698598689e-01  5.3067565726401467e-01  5.2970304069131735e-01  5.2774982486828326e-01  5.2491419832027741e-01  5.2134907276424891e-01  5.1725764153481868e-01  5.1288522357740685e-01  5.0850757640823174e-01  5.0441623085433440e-01  5.0090176713024015e-01  4.9823621159869058e-01  4.9665580855894675e-01  4.9634530664362697e-01  4.9742466952601744e-01  4.9993888989659951e-01  5.0385144615787869e-01  5.0904191539004151e-01  5.1530828579007815e-01  5.2237447867250963e-01  5.2990332672554130e-01  5.3751453544385663e-01  5.4480590256918793e-01  5.5137529136195118e-01  5.5684350856608733e-01  5.6088485827953671e-01  5.6326630369596753e-01  5.6384551899584989e-01  5.6242698204907704e-01  5.5858295043685879e-01  5.5214014889303009e-01  5.4485856178911740e-01  5.4128775214456371e-01  5.6464241921900948e-01  5.6395158959805702e-01  5.6202951779767618e-01  5.5868370968853864e-01  5.5381994258828149e-01  5.4766139131012426e-01  5.4058380176973819e-01  5.3298740793504240e-01  5.2526831215399572e-01  5.1781366841946808e-01  5.1098627937015428e-01  5.0510362152601429e-01  5.0042003145355207e-01  4.9711453557358493e-01  4.9528386654407081e-01  4.9494005380034972e-01  4.9601228028579608e-01  4.9835280711807972e-01  5.0174675243154765e-01  5.0592540085873816e-01  5.1058247978140181e-01  5.153924921