<?xml version="1.0"?>
<VTKFile type="UnstructuredGrid"  version="0.1"  >
<UnstructuredGrid>
<Piece  NumberOfPoints="20201" NumberOfCells="40000">
<Points>
<DataArray  type="Float64"  NumberOfComponents="3"  format="ascii">0 0 0  1 0 0  2 0 0  3 0 0  4 0 0  5 0 0  6 0 0  7 0 0  8 0 0  9 0 0  10 0 0  11 0 0  12 0 0  13 0 0  14 0 0  15 0 0  16 0 0  17 0 0  18 0 0  19 0 0  20 0 0  21 0 0  22 0 0  23 0 0  24 0 0  25 0 0  26 0 0  27 0 0  28 0 0  29 0 0  30 0 0  31 0 0  32 0 0  33 0 0  34 0 0  35 0 0  36 0 0  37 0 0  38 0 0  39 0 0  40 0 0  41 0 0  42 0 0  43 0 0  44 0 0  45 0 0  46 0 0  47 0 0  48 0 0  49 0 0  50 0 0  51 0 0  52 0 0  53 0 0  54 0 0  55 0 0  56 0 0  57 0 0  58 0 0  59 0 0  60 0 0  61 0 0  62 0 0  63 0 0  64 0 0  65 0 0  66 0 0  67 0 0  68 0 0  69 0 0  70 0 0  71 0 0  72 0 0  73 0 0  74 0 0  75 0 0  76 0 0  77 0 0  78 0 0  79 0 0  80 0 0  81 0 0  82 0 0  83 0 0  84 0 0  85 0 0  86 0 0  87 0 0  88 0 0  89 0 0  90 0 0  91 0 0  92 0 0  93 0 0  94 0 0  95 0 0  96 0 0  97 0 0  98 0 0  99 0 0  100 0 0  0 1 0  1 1 0  2 1 0  3 1 0  4 1 0  5 1 0  6 1 0  7 1 0  8 1 0  9 1 0  10 1 0  11 1 0  12 1 0  13 1 0  14 1 0  15 1 0  16 1 0  17 1 0  18 1 0  19 1 0  20 1 0  21 1 0  22 1 0  23 1 0  24 1 0  25 1 0  26 1 0  27 1 0  28 1 0  29 1 0  30 1 0  31 1 0  32 1 0  33 1 0  34 1 0  35 1 0  36 1 0  37 1 0  38 1 0  39 1 0  40 1 0  41 1 0  42 1 0  43 1 0  44 1 0  45 1 0  46 1 0  47 1 0  48 1 0  49 1 0  50 1 0  51 1 0  52 1 0  53 1 0  54 1 0  55 1 0  56 1 0  57 1 0  58 1 0  59 1 0  60 1 0  61 1 0  62 1 0  63 1 0  64 1 0  65 1 0  66 1 0  67 1 0  68 1 0  69 1 0  70 1 0  71 1 0  72 1 0  73 1 0  74 1 0  75 1 0  76 1 0  77 1 0  78 1 0  79 1 0  80 1 0  81 1 0  82 1 0  83 1 0  84 1 0  85 1 0  86 1 0  87 1 0  88 1 0  89 1 0  90 1 0  91 1 0  92 1 0  93 1 0  94 1 0  95 1 0  96 1 0  97 1 0  98 1 0  99 1 0  100 1 0  0 2 0  1 2 0  2 2 0  3 2 0  4 2 0  5 2 0  6 2 0  7 2 0  8 2 0  9 2 0  10 2 0  11 2 0  12 2 0  13 2 0  14 2 0  15 2 0  16 2 0  17 2 0  18 2 0  19 2 0  20 2 0  21 2 0  22 2 0  23 2 0  24 2 0  25 2 0  26 2 0  27 2 0  28 2 0  29 2 0  30 2 0  31 2 0  32 2 0  33 2 0  34 2 0  35 2 0  36 2 0  37 2 0  38 2 0  39 2 0  40 2 0  41 2 0  42 2 0  43 2 0  44 2 0  45 2 0  46 2 0  47 2 0  48 2 0  49 2 0  50 2 0  51 2 0  52 2 0  53 2 0  54 2 0  55 2 0  56 2 0  57 2 0  58 2 0  59 2 0  60 2 0  61 2 0  62 2 0  63 2 0  64 2 0  65 2 0  66 2 0  67 2 0  68 2 0  69 2 0  70 2 0  71 2 0  72 2 0  73 2 0  74 2 0  75 2 0  76 2 0  77 2 0  78 2 0  79 2 0  80 2 0  81 2 0  82 2 0  83 2 0  84 2 0  85 2 0  86 2 0  87 2 0  88 2 0  89 2 0  90 2 0  91 2 0  92 2 0  93 2 0  94 2 0  95 2 0  96 2 0  97 2 0  98 2 0  99 2 0  100 2 0  0 3 0  1 3 0  2 3 0  3 3 0  4 3 0  5 3 0  6 3 0  7 3 0  8 3 0  9 3 0  10 3 0  11 3 0  12 3 0  13 3 0  14 3 0  15 3 0  16 3 0  17 3 0  18 3 0  19 3 0  20 3 0  21 3 0  22 3 0  23 3 0  24 3 0  25 3 0  26 3 0  27 3 0  28 3 0  29 3 0  30 3 0  31 3 0  32 3 0  33 3 0  34 3 0  35 3 0  36 3 0  37 3 0  38 3 0  39 3 0  40 3 0  41 3 0  42 3 0  43 3 0  44 3 0  45 3 0  46 3 0  47 3 0  48 3 0  49 3 0  50 3 0  51 3 0  52 3 0  53 3 0  54 3 0  55 3 0  56 3 0  57 3 0  58 3 0  59 3 0  60 3 0  61 3 0  62 3 0  63 3 0  64 3 0  65 3 0  66 3 0  67 3 0  68 3 0  69 3 0  70 3 0  71 3 0  72 3 0  73 3 0  74 3 0  75 3 0  76 3 0  77 3 0  78 3 0  79 3 0  80 3 0  81 3 0  82 3 0  83 3 0  84 3 0  85 3 0  86 3 0  87 3 0  88 3 0  89 3 0  90 3 0  91 3 0  92 3 0  93 3 0  94 3 0  95 3 0  96 3 0  97 3 0  98 3 0  99 3 0  100 3 0  0 4 0  1 4 0  2 4 0  3 4 0  4 4 0  5 4 0  6 4 0  7 4 0  8 4 0  9 4 0  10 4 0  11 4 0  12 4 0  13 4 0  14 4 0  15 4 0  16 4 0  17 4 0  18 4 0  19 4 0  20 4 0  21 4 0  22 4 0  23 4 0  24 4 0  25 4 0  26 4 0  27 4 0  28 4 0  29 4 0  30 4 0  31 4 0  32 4 0  33 4 0  34 4 0  35 4 0  36 4 0  37 4 0  38 4 0  39 4 0  40 4 0  41 4 0  42 4 0  43 4 0  44 4 0  45 4 0  46 4 0  47 4 0  48 4 0  49 4 0  50 4 0  51 4 0  52 4 0  53 4 0  54 4 0  55 4 0  56 4 0  57 4 0  58 4 0  59 4 0  60 4 0  61 4 0  62 4 0  63 4 0  64 4 0  65 4 0  66 4 0  67 4 0  68 4 0  69 4 0  70 4 0  71 4 0  72 4 0  73 4 0  74 4 0  75 4 0  76 4 0  77 4 0  78 4 0  79 4 0  80 4 0  81 4 0  82 4 0  83 4 0  84 4 0  85 4 0  86 4 0  87 4 0  88 4 0  89 4 0  90 4 0  91 4 0  92 4 0  93 4 0  94 4 0  95 4 0  96 4 0  97 4 0  98 4 0  99 4 0  100 4 0  0 5 0  1 5 0  2 5 0  3 5 0  4 5 0  5 5 0  6 5 0  7 5 0  8 5 0  9 5 0  10 5 0  11 5 0  12 5 0  13 5 0  14 5 0  15 5 0  16 5 0  17 5 0  18 5 0  19 5 0  20 5 0  21 5 0  22 5 0  23 5 0  24 5 0  25 5 0  26 5 0  27 5 0  28 5 0  29 5 0  30 5 0  31 5 0  32 5 0  33 5 0  34 5 0  35 5 0  36 5 0  37 5 0  38 5 0  39 5 0  40 5 0  41 5 0  42 5 0  43 5 0  44 5 0  45 5 0  46 5 0  47 5 0  48 5 0  49 5 0  50 5 0  51 5 0  52 5 0  53 5 0  54 5 0  55 5 0  56 5 0  57 5 0  58 5 0  59 5 0  60 5 0  61 5 0  62 5 0  63 5 0  64 5 0  65 5 0  66 5 0  67 5 0  68 5 0  69 5 0  70 5 0  71 5 0  72 5 0  73 5 0  74 5 0  75 5 0  76 5 0  77 5 0  78 5 0  79 5 0  80 5 0  81 5 0  82 5 0  83 5 0  84 5 0  85 5 0  86 5 0  87 5 0  88 5 0  89 5 0  90 5 0  91 5 0  92 5 0  93 5 0  94 5 0  95 5 0  96 5 0  97 5 0  98 5 0  99 5 0  100 5 0  0 6 0  1 6 0  2 6 0  3 6 0  4 6 0  5 6 0  6 6 0  7 6 0  8 6 0  9 6 0  10 6 0  11 6 0  12 6 0  13 6 0  14 6 0  15 6 0  16 6 0  17 6 0  18 6 0  19 6 0  20 6 0  21 6 0  22 6 0  23 6 0  24 6 0  25 6 0  26 6 0  27 6 0  28 6 0  29 6 0  30 6 0  31 6 0  32 6 0  33 6 0  34 6 0  35 6 0  36 6 0  37 6 0  38 6 0  39 6 0  40 6 0  41 6 0  42 6 0  43 6 0  44 6 0  45 6 0  46 6 0  47 6 0  48 6 0  49 6 0  50 6 0  51 6 0  52 6 0  53 6 0  54 6 0  55 6 0  56 6 0  57 6 0  58 6 0  59 6 0  60 6 0  61 6 0  62 6 0  63 6 0  64 6 0  65 6 0  66 6 0  67 6 0  68 6 0  69 6 0  70 6 0  71 6 0  72 6 0  73 6 0  74 6 0  75 6 0  76 6 0  77 6 0  78 6 0  79 6 0  80 6 0  81 6 0  82 6 0  83 6 0  84 6 0  85 6 0  86 6 0  87 6 0  88 6 0  89 6 0  90 6 0  91 6 0  92 6 0  93 6 0  94 6 0  95 6 0  96 6 0  97 6 0  98 6 0  99 6 0  100 6 0  0 7 0  1 7 0  2 7 0  3 7 0  4 7 0  5 7 0  6 7 0  7 7 0  8 7 0  9 7 0  10 7 0  11 7 0  12 7 0  13 7 0  14 7 0  15 7 0  16 7 0  17 7 0  18 7 0  19 7 0  20 7 0  21 7 0  22 7 0  23 7 0  24 7 0  25 7 0  26 7 0  27 7 0  28 7 0  29 7 0  30 7 0  31 7 0  32 7 0  33 7 0  34 7 0  35 7 0  36 7 0  37 7 0  38 7 0  39 7 0  40 7 0  41 7 0  42 7 0  43 7 0  44 7 0  45 7 0  46 7 0  47 7 0  48 7 0  49 7 0  50 7 0  51 7 0  52 7 0  53 7 0  54 7 0  55 7 0  56 7 0  57 7 0  58 7 0  59 7 0  60 7 0  61 7 0  62 7 0  63 7 0  64 7 0  65 7 0  66 7 0  67 7 0  68 7 0  69 7 0  70 7 0  71 7 0  72 7 0  73 7 0  74 7 0  75 7 0  76 7 0  77 7 0  78 7 0  79 7 0  80 7 0  81 7 0  82 7 0  83 7 0  84 7 0  85 7 0  86 7 0  87 7 0  88 7 0  89 7 0  90 7 0  91 7 0  92 7 0  93 7 0  94 7 0  95 7 0  96 7 0  97 7 0  98 7 0  99 7 0  100 7 0  0 8 0  1 8 0  2 8 0  3 8 0  4 8 0  5 8 0  6 8 0  7 8 0  8 8 0  9 8 0  10 8 0  11 8 0  12 8 0  13 8 0  14 8 0  15 8 0  16 8 0  17 8 0  18 8 0  19 8 0  20 8 0  21 8 0  22 8 0  23 8 0  24 8 0  25 8 0  26 8 0  27 8 0  28 8 0  29 8 0  30 8 0  31 8 0  32 8 0  33 8 0  34 8 0  35 8 0  36 8 0  37 8 0  38 8 0  39 8 0  40 8 0  41 8 0  42 8 0  43 8 0  44 8 0  45 8 0  46 8 0  47 8 0  48 8 0  49 8 0  50 8 0  51 8 0  52 8 0  53 8 0  54 8 0  55 8 0  56 8 0  57 8 0  58 8 0  59 8 0  60 8 0  61 8 0  62 8 0  63 8 0  64 8 0  65 8 0  66 8 0  67 8 0  68 8 0  69 8 0  70 8 0  71 8 0  72 8 0  73 8 0  74 8 0  75 8 0  76 8 0  77 8 0  78 8 0  79 8 0  80 8 0  81 8 0  82 8 0  83 8 0  84 8 0  85 8 0  86 8 0  87 8 0  88 8 0  89 8 0  90 8 0  91 8 0  92 8 0  93 8 0  94 8 0  95 8 0  96 8 0  97 8 0  98 8 0  99 8 0  100 8 0  0 9 0  1 9 0  2 9 0  3 9 0  4 9 0  5 9 0  6 9 0  7 9 0  8 9 0  9 9 0  10 9 0  11 9 0  12 9 0  13 9 0  14 9 0  15 9 0  16 9 0  17 9 0  18 9 0  19 9 0  20 9 0  21 9 0  22 9 0  23 9 0  24 9 0  25 9 0  26 9 0  27 9 0  28 9 0  29 9 0  30 9 0  31 9 0  32 9 0  33 9 0  34 9 0  35 9 0  36 9 0  37 9 0  38 9 0  39 9 0  40 9 0  41 9 0  42 9 0  43 9 0  44 9 0  45 9 0  46 9 0  47 9 0  48 9 0  49 9 0  50 9 0  51 9 0  52 9 0  53 9 0  54 9 0  55 9 0  56 9 0  57 9 0  58 9 0  59 9 0  60 9 0  61 9 0  62 9 0  63 9 0  64 9 0  65 9 0  66 9 0  67 9 0  68 9 0  69 9 0  70 9 0  71 9 0  72 9 0  73 9 0  74 9 0  75 9 0  76 9 0  77 9 0  78 9 0  79 9 0  80 9 0  81 9 0  82 9 0  83 9 0  84 9 0  85 9 0  86 9 0  87 9 0  88 9 0  89 9 0  90 9 0  91 9 0  92 9 0  93 9 0  94 9 0  95 9 0  96 9 0  97 9 0  98 9 0  99 9 0  100 9 0  0 10 0  1 10 0  2 10 0  3 10 0  4 10 0  5 10 0  6 10 0  7 10 0  8 10 0  9 10 0  10 10 0  11 10 0  12 10 0  13 10 0  14 10 0  15 10 0  16 10 0  17 10 0  18 10 0  19 10 0  20 10 0  21 10 0  22 10 0  23 10 0  24 10 0  25 10 0  26 10 0  27 10 0  28 10 0  29 10 0  30 10 0  31 10 0  32 10 0  33 10 0  34 10 0  35 10 0  36 10 0  37 10 0  38 10 0  39 10 0  40 10 0  41 10 0  42 10 0  43 10 0  44 10 0  45 10 0  46 10 0  47 10 0  48 10 0  49 10 0  50 10 0  51 10 0  52 10 0  53 10 0  54 10 0  55 10 0  56 10 0  57 10 0  58 10 0  59 10 0  60 10 0  61 10 0  62 10 0  63 10 0  64 10 0  65 10 0  66 10 0  67 10 0  68 10 0  69 10 0  70 10 0  71 10 0  72 10 0  73 10 0  74 10 0  75 10 0  76 10 0  77 10 0  78 10 0  79 10 0  80 10 0  81 10 0  82 10 0  83 10 0  84 10 0  85 10 0  86 10 0  87 10 0  88 10 0  89 10 0  90 10 0  91 10 0  92 10 0  93 10 0  94 10 0  95 10 0  96 10 0  97 10 0  98 10 0  99 10 0  100 10 0  0 11 0  1 11 0  2 11 0  3 11 0  4 11 0  5 11 0  6 11 0  7 11 0  8 11 0  9 11 0  10 11 0  11 11 0  12 11 0  13 11 0  14 11 0  15 11 0  16 11 0  17 11 0  18 11 0  19 11 0  20 11 0  21 11 0  22 11 0  23 11 0  24 11 0  25 11 0  26 11 0  27 11 0  28 11 0  29 11 0  30 11 0  31 11 0  32 11 0  33 11 0  34 11 0  35 11 0  36 11 0  37 11 0  38 11 0  39 11 0  40 11 0  41 11 0  42 11 0  43 11 0  44 11 0  45 11 0  46 11 0  47 11 0  48 11 0  49 11 0  50 11 0  51 11 0  52 11 0  53 11 0  54 11 0  55 11 0  56 11 0  57 11 0  58 11 0  59 11 0  60 11 0  61 11 0  62 11 0  63 11 0  64 11 0  65 11 0  66 11 0  67 11 0  68 11 0  69 11 0  70 11 0  71 11 0  72 11 0  73 11 0  74 11 0  75 11 0  76 11 0  77 11 0  78 11 0  79 11 0  80 11 0  81 11 0  82 11 0  83 11 0  84 11 0  85 11 0  86 11 0  87 11 0  88 11 0  89 11 0  90 11 0  91 11 0  92 11 0  93 11 0  94 11 0  95 11 0  96 11 0  97 11 0  98 11 0  99 11 0
[...]
<PointData  Scalars="f_3357-0"> 
<DataArray  type="Float64"  Name="f_3357-0"  format="ascii">6.2234194751859784e-01  6.2076332935197531e-01  6.1655822572918528e-01  6.1017967827341901e-01  6.0175158465040612e-01  5.9123479904468090e-01  5.7860463828402953e-01  5.6403967061574356e-01  5.4808099768065788e-01  5.3167646629440757e-01  5.1603954509004868e-01  5.0235977628993755e-01  4.9151855078729484e-01  4.8396113448728484e-01  4.7975121992937958e-01  4.7871762147370317e-01  4.8058364740729032e-01  4.8502265921430476e-01  4.9164475791583045e-01  4.9995623313308873e-01  5.0934088135105604e-01  5.1909406173573758e-01  5.2850547129929215e-01  5.3695508249919677e-01  5.4397994420166007e-01  5.4929034995588244e-01  5.5274304283632092e-01  5.5429573287754985e-01  5.5396627491237171e-01  5.5180974663725801e-01  5.4791655316038990e-01  5.4242775741546057e-01  5.3555885085172217e-01  5.2761901882297835e-01  5.1901149557835979e-01  5.1020556950419194e-01  5.0168301556030381e-01  4.9387533725079535e-01  4.8711370505005847e-01  4.8160648641020254e-01  4.7744515609350130e-01  4.7462805514233708e-01  4.7308859589680674e-01  4.7271865728826201e-01  4.7338422492348886e-01  4.7493498922690736e-01  4.7721140029946563e-01  4.8005217048080412e-01  4.8330355923096374e-01  4.8682997100444958e-01  4.9052410291922882e-01  4.9431440232190860e-01  4.9816791729989079e-01  5.0208748005527226e-01  5.0610319827671579e-01  5.1025917718444191e-01  5.1459716474064798e-01  5.1913942638628174e-01  5.2387358891688085e-01  5.2874226070631369e-01  5.3363965027368576e-01  5.3841601929787708e-01  5.4288887195902569e-01  5.4685797677964609e-01  5.5012041404874967e-01  5.5248224381727939e-01  5.5376491452948773e-01  5.5380664548326086e-01  5.5246125173654881e-01  5.4959898970161103e-01  5.4511558439190344e-01  5.3895545994031202e-01  5.3115121913606211e-01  5.2187204735180259e-01  5.1146129767557957e-01  5.0043678228590904e-01  4.8943714514819098e-01  4.7912483109452886e-01  4.7008330234272566e-01  4.6275069157764903e-01  4.5740990683377969e-01  4.5422502756171640e-01  4.5329615913318028e-01  4.5470406208872050e-01  4.5852361919236623e-01  4.6479453578977470e-01  4.7344959585260238e-01  4.8421988156475815e-01  4.9655951999546960e-01  5.0964160040117934e-01  5.2245114142505455e-01  5.3394872664135007e-01  5.4324612796204352e-01  5.4975839814990823e-01  5.5334569715101090e-01  5.5445882608539554e-01  5.5421626219605857e-01  5.5422254939237725e-01  5.5592617538639599e-01  5.5949878215083060e-01  5.6219225442008425e-01  6.2165474151824895e-01  6.2007986850483776e-01  6.1588766949251494e-01  6.0953482947695425e-01  6.0114948454301820e-01  5.9069717615877892e-01  5.7815801551748125e-01  5.6371352424439625e-01  5.4790240778631427e-01  5.3166200604840641e-01  5.1618838639362341e-01  5.0265257353350790e-01  4.9192294884855736e-01  4.8444017759957153e-01  4.8026995342810758e-01  4.7924573487309158e-01  4.8109493888542937e-01  4.8549340665457724e-01  4.9205286196308856e-01  5.0028201083746826e-01  5.0956919120761890e-01  5.1921651314780093e-01  5.2852132116864903e-01  5.3687018260956565e-01  5.4380421364770282e-01  5.4903488765057784e-01  5.5241785850278002e-01  5.5390851115789042e-01  5.5352209537158026e-01  5.5131147654279478e-01  5.4736563360242874e-01  5.4182515398776276e-01  5.3490594219924181e-01  5.2691816543371783e-01  5.1826605968687944e-01  5.0941932307610460e-01  5.0085913922134451e-01  4.9301541621523420e-01  4.8621711738707374e-01  4.8067036706838745e-01  4.7646487014914579e-01  4.7359797866392100e-01  4.7200300915692328e-01  4.7157262959287138e-01  4.7217443214797400e-01  4.7366042107873679e-01  4.7587389748906433e-01  4.7865671497878681e-01  4.8185825089662998e-01  4.8534566917814970e-01  4.8901377879988817e-01  4.9279231078264729e-01  4.9664873025916068e-01  5.0058551627704306e-01  5.0463184218815760e-01  5.0883051906189192e-01  5.1322183625034878e-01  5.1782656548885364e-01  5.2263085723675662e-01  5.2757585761303094e-01  5.3255431350816118e-01  5.3741505286750924e-01  5.4197427379653174e-01  5.4603073508076261e-01  5.4938100585926619e-01  5.5183132392178313e-01  5.5320414975058030e-01  5.5333963306128775e-01  5.5209443755288823e-01  5.4934243407389916e-01  5.4498328669987761e-01  5.3896478858873387e-01  5.3132094906246186e-01  5.2221881616340393e-01  5.1199508075948097e-01  5.0115696296661849e-01  4.9033113422276869e-01  4.8017030412954276e-01  4.7125331642060864e-01  4.6401951656483820e-01  4.5875734645494087e-01  4.5563804092464971e-01  4.5476772218663375e-01  4.5622980691022952e-01  4.6009699679200300e-01  4.6640156601199834e-01  4.7506495609719307e-01  4.8580671720240359e-01  4.9807482447533991e-01  5.1104647330728759e-01  5.2372168267896790e-01  5.3508158096432501e-01  5.4425448228999940e-01  5.5065788593132614e-01  5.5413248373300328e-01  5.5508434257967931e-01  5.5456693690443892e-01  5.5411763924198176e-01  5.5514589253745528e-01  5.5783569117533349e-01  5.5980601747029490e-01  6.1958265155310133e-01  6.1801843458805139e-01  6.1386320825612528e-01  6.0758454648870897e-01  5.9932311826805562e-01  5.8905810530230140e-01  5.7678337742220998e-01  5.6268879693196117e-01  5.4730604565955610e-01  5.3154228106166512e-01  5.1654368063156519e-01  5.0342799510078506e-01  4.9302574512479458e-01  4.8576358082927235e-01  4.8171218169897873e-01  4.8071792079924308e-01  4.8252003006490840e-01  4.8680187125585012e-01  4.9318047752913463e-01  5.0117221463202888e-01  5.1017906279496217e-01  5.1952286494868449e-01  5.2852300918596962e-01  5.3658492893223853e-01  5.4326133911163299e-01  5.4826711116050975e-01  5.5145490498262117e-01  5.5277367461941174e-01  5.5223151553169192e-01  5.4987529915365274e-01  5.4579022365773877e-01  5.4011566969817904e-01  5.3306860141700030e-01  5.2496149900813305e-01  5.1620059731870849e-01  5.0725567452831322e-01  4.9860516056787785e-01  4.9067362327290565e-01  4.8378336125428595e-01  4.7813413433593449e-01  4.7381089779082419e-01  4.7080857136511911e-01  4.6906053338364723e-01  4.6846190065212773e-01  4.6888488509899995e-01  4.7018798705591025e-01  4.7222244288575949e-01  4.7483883782219105e-01  4.7789524335797273e-01  4.8126657081464974e-01  4.8485362706728580e-01  4.8858987248889468e-01  4.9244410013560957e-01  4.9641796154457624e-01  5.0053816529021589e-01  5.0484404762878476e-01  5.0937198307769094e-01  5.1413877886462211e-01  5.1912673675522492e-01  5.2427325665466629e-01  5.2946737185657133e-01  5.3455425204249030e-01  5.3934671391119160e-01  5.4364084246389477e-01  5.4723179555731216e-01  5.4992621501351047e-01  5.5154922934469031e-01  5.5194620496485070e-01  5.5098161722431760e-01  5.4853935867456249e-01  5.4453013213686063e-01  5.3891133032919891e-01  5.3172127156209847e-01  5.2312159871495789e-01  5.1343102231253546e-01  5.0312759225641568e-01  4.9280439194727466e-01  4.8308602964144187e-01  4.7453690905682550e-01  4.6759799908716565e-01  4.6257161943736136e-01  4.5964777045786298e-01  4.5894843468774116e-01  4.6056360568925248e-01  4.6455912347386530e-01  4.7094607907989444e-01  4.7961469522021155e-01  4.9025416982578057e-01  5.0229850168948587e-01  5.1494003623245277e-01  5.2722358756758281e-01  5.3818906495636687e-01  5.4701121409489417e-01  5.5311445991074848e-01  5.5628620043137922e-01  5.5681078152738728e-01  5.5556779238635035e-01  5.5392636275270024e-01  5.5324333938199488e-01  5.5396447338055510e-01  5.5479752476384137e-01  6.1609612178677575e-01  6.1454801912504486e-01  6.1044949013928307e-01  6.0428619100112646e-01  5.9621918555738684e-01  5.8624912352879965e-01  5.7439083972287885e-01  5.6084634532108302e-01  5.4613584236796142e-01  5.3111992794795304e-01  5.1686841528994654e-01  5.0441716301758888e-01  4.9453736256618408e-01  4.8763199887336273e-01  4.8377725270477973e-01  4.8283806279081870e-01  4.8457179266463735e-01  4.8867448050816764e-01  4.9477318852641222e-01  5.0239812546867113e-01  5.1097393629907395e-01  5.1985373595227613e-01  5.2839098356528225e-01  5.3601988932664824e-01  5.4231079369811053e-01  5.4698388887705007e-01  5.4988770892394512e-01  5.5096212786347298e-01  5.5020527149138376e-01  5.4765589009181859e-01  5.4339428401800594e-01  5.3755836863596196e-01  5.3036621886640090e-01  5.2213218665800187e-01  5.1326280393755841e-01  5.0422461162560461e-01  4.9548866406218123e-01  4.8746914656514784e-01  4.8047727212951341e-01  4.7470338102387871e-01  4.7022623069491265e-01  4.6703830073646080e-01  4.6507413110210549e-01  4.6423319870905999e-01  4.6439487648251715e-01  4.6542723530794122e-01  4.6719296298624513e-01  4.6955517577884431e-01  4.7238446672358075e-01  4.7556702125264971e-01  4.7901253354485479e-01  4.8266018285628359e-01  4.8648105945816927e-01  4.9047598882522503e-01  4.9466845757929001e-01  4.9909312107733206e-01  5.0378111377734125e-01  5.0874410053405295e-01  5.1395964395064719e-01  5.1936078692251342e-01  5.2483239602028298e-01  5.3021553232298091e-01  5.3531909369910347e-01  5.3993591224673809e-01  5.4385930600763799e-01  5.4689633715455088e-01  5.4887558766120392e-01  5.4964947836792055e-01  5.4909335725031394e-01  5.4710537893862776e-01  5.4361228351269952e-01  5.3858583006303262e-01  5.3207154570198689e-01  5.2422469195707666e-01  5.1533954431837781e-01  5.0585294304854866e-01  4.9630886126311380e-01  4.8728866342349769e-01  4.7933149917669793e-01  4.7287559788385713e-01  4.6823866013244736e-01  4.6563406571681859e-01  4.6520376322666551e-01  4.6704470155121125e-01  4.7121067447525605e-01  4.7768127737609378e-01  4.8630347896397308e-01  4.9672844358685808e-01  5.0837934869706958e-01  5.2048076030829749e-01  5.3215013110936427e-01  5.4251608220502223e-01  5.5082113425981838e-01  5.5650003079488441e-01  5.5926585720295274e-01  5.5923461512808126e-01  5.5705111610194136e-01  5.5387769506208862e-01  5.5107530719232178e-01  5.4957406378745055e-01  5.4928495917977183e-01  6.1115111168847214e-01  6.0962301219843762e-01  6.0559627264149485e-01  5.9958189813322571e-01  5.9176874996571138e-01  5.8218522138146378e-01  5.7087165988108834e-01  5.5804334404794942e-01  5.4420399963599342e-01  5.3015491581114305e-01  5.1687061531961676e-01  5.0528473149004594e-01  4.9609284008290006e-01  4.8966519324857605e-01  4.8608140016750689e-01  4.8522743736405949e-01  4.8688322048030480e-01  4.9076249225127488e-01  4.9650803018804529e-01  5.0367088664255966e-01  5.1170695391458132e-01  5.2001011278796017e-01  5.2797688244461749e-01  5.3507729155640149e-01  5.4090362967479788e-01  5.4518316084846863e-01  5.4776029123242098e-01  5.4856508586062769e-01  5.4758507002661871e-01  5.4485073494332492e-01  5.4043772948183144e-01  5.3448255926138355e-01  5.2720339685514828e-01  5.1891354112419585e-01  5.1001463942114411e-01  5.0096306378036937e-01  4.9221511336811097e-01  4.8416832522308872e-01  4.7711880016678543e-01  4.7124595975785266e-01  4.6662292999789784e-01  4.6324156834931307e-01  4.6103988026573350e-01  4.5992399139177947e-01  4.5978249767692631e-01  4.6049487052207733e-01  4.6193693650016127e-01  4.6398597993642826e-01  4.6652673965781843e-01  4.6945824719190921e-01  4.7270049792355234e-01  4.7619951128578952e-01  4.7992939372699217e-01  4.8389042903683788e-01  4.8810281074930240e-01  4.9259627849068066e-01  4.9739659612180398e-01  5.0251053366209764e-01  5.0791173114021604e-01  5.1353028952702051e-01  5.1924875701242723e-01  5.2490604746459868e-01  5.3030884906815567e-01  5.3524792553089984e-01  5.3951533886051029e-01  5.4291869848157071e-01  5.4529001695024037e-01  5.4648896615692932e-01  5.4640250872500540e-01  5.4494453874230220e-01  5.4206001733801257e-01  5.3773763738634939e-01  5.3203242389935035e-01  5.2509429871860536e-01  5.1719179081011868e-01  5.0871598339238444e-01  5.0015380640662677e-01  4.9203304784558921e-01  4.8485684897552228e-01  4.7905162856591454e-01  4.7494420439676011e-01  4.7276748041777095e-01  4.7268039694391117e-01  4.7478316060660158e-01  4.7911260152991114e-01  4.8561212248018126e-01  4.9408426258590771e-01  5.0414817821260949e-01  5.1523097931037087e-01  5.2661054491069459e-01  5.3749901862327432e-01  5.4713143047175672e-01  5.5482842936283672e-01  5.6003720531783752e-01  5.6239038454517454e-01  5.6182232466455317e-01  5.5872859456829249e-01  5.5406545754428371e-01  5.4923351870344406e-01  5.4568001668936272e-01  5.4439645794109293e-01  6.0469460229723748e-01  6.0318969068961159e-01  5.9924785529034719e-01  5.9341293099693326e-01  5.8590854726864516e-01  5.7679524243609936e-01  5.6613999104260948e-01  5.5416863046699683e-01  5.4136161155660822e-01  5.2845072477336186e-01  5.1630329268226471e-01  5.0573896951692443e-01  4.9736767934632486e-01  4.9151981914159326e-01  4.8827484245337516e-01  4.8753955026144780e-01  4.8911887460859621e-01  4.9274872041407836e-01  4.9809358392075220e-01  5.0473249921787033e-01  5.1216023545835399e-01  5.1981870428822663e-01  5.2715361384087367e-01  5.3367539967274924e-01  5.3900137691575323e-01  5.4286779909265681e-01  5.4511621785726105e-01  5.4566802340777532e-01  5.4450145305604991e-01  5.4164019712596079e-01  5.3715637447443965e-01  5.3118497155527644e-01  5.2394187056452335e-01  5.1573394082223556e-01  5.0694975520616836e-01  4.9802580841208333e-01  4.8939445986063235e-01  4.8142986769359525e-01  4.7440975049065970e-01  4.6850262577613394e-01  4.6377827225832496e-01  4.6023121884873552e-01  4.5780620374281994e-01  4.5641862359435226e-01  4.5596804752867343e-01  4.5634627014292306e-01  4.5744254523044126e-01  4.5914822775638292e-01  4.6136195711190531e-01  4.6399539925882188e-01  4.6697876888671991e-01  4.7026498088416441e-01  4.7383129581969496e-01  4.7767761272152365e-01  4.8182099734767853e-01  4.8628653826149676e-01  4.9109519724583744e-01  4.9625000008274645e-01  5.0172265670750460e-01  5.0744327954570101e-01  5.1329588595403020e-01  5.1912146348588684e-01  5.2472855532636109e-01  5.2990916653411557e-01  5.3445624572174211e-01  5.3817881859498384e-01  5.4091211715492404e-01  5.4252215884218780e-01  5.4290635905607731e-01  5.4199331854113975e-01  5.3974561187555936e-01  5.3616890584404686e-01  5.3132856236854409e-01  5.2537077287368716e-01  5.1854023389306270e-01  5.1118335667646109e-01  5.0372866318438725e-01  4.9664523857186016e-01  4.9039126608908323e-01  4.8536997387058722e-01  4.8190551543656435e-01  4.8023970214920264e-01  4.8053971366831022e-01  4.8290250548409286e-01  4.8734466726907261e-01  4.9377536651971426e-01  5.0196206119730513e-01  5.1150891378409769e-01  5.2186833107330133e-01  5.3239113584640763e-01  5.4239685144054983e-01  5.5123179519814525e-01  5.5829533862288594e-01  5.6304847243478151e-01  5.6504923372026283e-01  5.6406189541741547e-01  5.6024798871546877e-01  5.5436973180246230e-01  5.4785769601461964e-01  5.4260327323399504e-01  5.4049900774301474e-01  5.9667100493514780e-01  5.9519354840868888e-01  5.9135305480062683e-01  5.8573372836768101e-01  5.7860018013194270e-01  5.7004702875264868e-01  5.6016471896944864e-01  5.4918211639524872e-01  5.3754663697968685e-01  5.2591153307104788e-01  5.1503056221995069e-01  5.0560530043265217e-01  4.9815642315234610e-01  4.9297049230242929e-01  4.9012320192681830e-01  4.8954033278808190e-01  4.9105262025278384e-01  4.9442158157767513e-01  4.9933890263227454e-01  5.0541802905273658e-01  5.1219883984999792e-01  5.1917648450229992e-01  5.2584982568159855e-01  5.3177273839898653e-01  5.3659013203350847e-01  5.4004969473874964e-01  5.4199260758629253e-01  5.4233415230431525e-01  5.4104583984583809e-01  5.3814678616432288e-01  5.3370679539559807e-01  5.2785857337894138e-01  5.2081203375035490e-01  5.1286063329869847e-01  5.0437022155847022e-01  4.9574681225855916e-01  4.8738948259635501e-01  4.7964273981502242e-01  4.7276343217488065e-01  4.6691000634985252e-01  4.6215185703727241e-01  4.5848995268103182e-01  4.5587929356205981e-01  4.5424722087270869e-01  4.5350585861270898e-01  4.5355984461179355e-01  4.5431150793182301e-01  4.5566532306199192e-01  4.5753257980118966e-01  4.5983630730641734e-01  4.6251585770669196e-01  4.6553026147198351e-01  4.6885946943577195e-01  4.7250279887008562e-01  4.7647420895297926e-01  4.8079439916850786e-01  4.8548017522867992e-01  4.9053211231555233e-01  4.9592224738551877e-01  5.0158416208687262e-01  5.0740800658875018e-01  5.1324238144224454e-01  5.1890345240324454e-01  5.2418965804330675e-01  5.2889873357789874e-01  5.3284330891528697e-01  5.3586226790728608e-01  5.3782691677605110e-01  5.3864300883028360e-01  5.3825115183827310e-01  5.3662873596992011e-01  5.3379606493283582e-01  5.2982763758032336e-01  5.2486649969200250e-01  5.1913605652831285e-01  5.1294167055808537e-01  5.0665609105321108e-01  5.0068883159412159e-01  4.9544715683395363e-01  4.9130035966780411e-01  4.8855639306187343e-01  4.8745228270915558e-01  4.8815202334996499e-01  4.9074228438086220e-01  4.9521886130753417e-01  5.0146442876383157e-01  5.0922763923800263e-01  5.1811946528805364e-01  5.2763858763148819e-01  5.3722208026768448e-01  5.4629952347597932e-01  5.5432362510534539e-01  5.6076712183583344e-01  5.6510630256688210e-01  5.6683769717131038e-01  5.6558039437296526e-01  5.6129106674883800e-01  5.5455182485365340e-01  5.4679085672839500e-01  5.4023520547323090e-01  5.3749230286415128e-01  5.8703375175234496e-01  5.8559145816589098e-01  5.8187880845578888e-01  5.7652714945917782e-01  5.6984644875906576e-01  5.6196376772847179e-01  5.5298474108344631e-01  5.4312847028487787e-01  5.3279635807770764e-01  5.2255461894876820e-01  5.1304140554867728e-01  5.0484243549729657e-01  4.9839136694471259e-01  4.9393054702134265e-01  4.9152938627331894e-01  4.9113017547574966e-01  4.9258897231879828e-01  4.9569508418971625e-01  5.0017165163307653e-01  5.0567160296998315e-01  5.1178452676465391e-01  5.1806229534334980e-01  5.2405949301314236e-01  5.2937576691932964e-01  5.3368630355799795e-01  5.3675341439113877e-01  5.3842140088976753e-01  5.3860289013690110e-01  5.3726571058550288e-01  5.3442656956478463e-01  5.3015359883132063e-01  5.2457559109760921e-01  5.1789202111935162e-01  5.1037566342976071e-01  5.0236047901767034e-01  4.9421256358159354e-01  4.8628978073651147e-01  4.7890182022820393e-01  4.7228261614221917e-01  4.6658114676935930e-01  4.6186872839339421e-01  4.5815577161594589e-01  4.5541043264625708e-01  4.5357426763216768e-01  4.5257335529303511e-01  4.5232566088778298e-01  4.5274625279829439e-01  4.5375175951722380e-01  4.5526477389476305e-01  4.5721822251337618e-01  4.5955924303086382e-01  4.6225190257599519e-01  4.6527810126194941e-01  4.6863615449004903e-01  4.7233676279182307e-01  4.7639633182003205e-01  4.8082793106008470e-01  4.8563063913222354e-01  4.9077862454224952e-01  4.9621191674438653e-01  5.0183112649212391e-01  5.0749801749654966e-01  5.1304265381720815e-01  5.1827612012592061e-01  5.2300621858259533e-01  5.2705283234178801e-01  5.3026015471398147e-01  5.3250444740190461e-01  5.3369774363737021e-01  5.3378929418675047e-01  5.3276716940035929e-01  5.3066211424690746e-01  5.2755445623282993e-01  5.2358272623090407e-01  5.1895029065846587e-01  5.1392496922368403e-01  5.0882770478697825e-01  5.0401014261835086e-01  4.9982573561064675e-01  4.9660170473957815e-01  4.9461782440553137e-01  4.9409332378536058e-01  4.9517824089430612e-01  4.9794351712047091e-01  5.0236649258397770e-01  5.0831447368353111e-01  5.1553554452910344e-01  5.2366782204504847e-01  5.3227174405049260e-01  5.4087600120164936e-01  5.4901532792136531e-01  5.5623892809150433e-01  5.6208578477601823e-01  5.6604998793348948e-01  5.6758272015379430e-01  5.6618726021512811e-01  5.6164907874445191e-01  5.5438588667438415e-01  5.4578873214280621e-01  5.3831071979932599e-01  5.3509911881313399e-01  5.7577031789250444e-01  5.7437656779843183e-01  5.7083431885128055e-01  5.6582639489314557e-01  5.5970879865817269e-01  5.5263448109826629e-01  5.4471052884257232e-01  5.3612894693024360e-01  5.2723010737514553e-01  5.1848587115486877e-01  5.1042056226574783e-01  5.0351123610429804e-01  4.9811135199089523e-01  4.9442181429709137e-01  4.9250462751435714e-01  4.9231608507173757e-01  4.9373618011553877e-01  4.9658286769788013e-01  5.0061347692577163e-01  5.0552382345902691e-01  5.1095613860735911e-01  5.165210919