<?xml version="1.0"?>
<VTKFile type="UnstructuredGrid"  version="0.1"  >
<UnstructuredGrid>
<Piece  NumberOfPoints="20201" NumberOfCells="40000">
<Points>
<DataArray  type="Float64"  NumberOfComponents="3"  format="ascii">0 0 0  1 0 0  2 0 0  3 0 0  4 0 0  5 0 0  6 0 0  7 0 0  8 0 0  9 0 0  10 0 0  11 0 0  12 0 0  13 0 0  14 0 0  15 0 0  16 0 0  17 0 0  18 0 0  19 0 0  20 0 0  21 0 0  22 0 0  23 0 0  24 0 0  25 0 0  26 0 0  27 0 0  28 0 0  29 0 0  30 0 0  31 0 0  32 0 0  33 0 0  34 0 0  35 0 0  36 0 0  37 0 0  38 0 0  39 0 0  40 0 0  41 0 0  42 0 0  43 0 0  44 0 0  45 0 0  46 0 0  47 0 0  48 0 0  49 0 0  50 0 0  51 0 0  52 0 0  53 0 0  54 0 0  55 0 0  56 0 0  57 0 0  58 0 0  59 0 0  60 0 0  61 0 0  62 0 0  63 0 0  64 0 0  65 0 0  66 0 0  67 0 0  68 0 0  69 0 0  70 0 0  71 0 0  72 0 0  73 0 0  74 0 0  75 0 0  76 0 0  77 0 0  78 0 0  79 0 0  80 0 0  81 0 0  82 0 0  83 0 0  84 0 0  85 0 0  86 0 0  87 0 0  88 0 0  89 0 0  90 0 0  91 0 0  92 0 0  93 0 0  94 0 0  95 0 0  96 0 0  97 0 0  98 0 0  99 0 0  100 0 0  0 1 0  1 1 0  2 1 0  3 1 0  4 1 0  5 1 0  6 1 0  7 1 0  8 1 0  9 1 0  10 1 0  11 1 0  12 1 0  13 1 0  14 1 0  15 1 0  16 1 0  17 1 0  18 1 0  19 1 0  20 1 0  21 1 0  22 1 0  23 1 0  24 1 0  25 1 0  26 1 0  27 1 0  28 1 0  29 1 0  30 1 0  31 1 0  32 1 0  33 1 0  34 1 0  35 1 0  36 1 0  37 1 0  38 1 0  39 1 0  40 1 0  41 1 0  42 1 0  43 1 0  44 1 0  45 1 0  46 1 0  47 1 0  48 1 0  49 1 0  50 1 0  51 1 0  52 1 0  53 1 0  54 1 0  55 1 0  56 1 0  57 1 0  58 1 0  59 1 0  60 1 0  61 1 0  62 1 0  63 1 0  64 1 0  65 1 0  66 1 0  67 1 0  68 1 0  69 1 0  70 1 0  71 1 0  72 1 0  73 1 0  74 1 0  75 1 0  76 1 0  77 1 0  78 1 0  79 1 0  80 1 0  81 1 0  82 1 0  83 1 0  84 1 0  85 1 0  86 1 0  87 1 0  88 1 0  89 1 0  90 1 0  91 1 0  92 1 0  93 1 0  94 1 0  95 1 0  96 1 0  97 1 0  98 1 0  99 1 0  100 1 0  0 2 0  1 2 0  2 2 0  3 2 0  4 2 0  5 2 0  6 2 0  7 2 0  8 2 0  9 2 0  10 2 0  11 2 0  12 2 0  13 2 0  14 2 0  15 2 0  16 2 0  17 2 0  18 2 0  19 2 0  20 2 0  21 2 0  22 2 0  23 2 0  24 2 0  25 2 0  26 2 0  27 2 0  28 2 0  29 2 0  30 2 0  31 2 0  32 2 0  33 2 0  34 2 0  35 2 0  36 2 0  37 2 0  38 2 0  39 2 0  40 2 0  41 2 0  42 2 0  43 2 0  44 2 0  45 2 0  46 2 0  47 2 0  48 2 0  49 2 0  50 2 0  51 2 0  52 2 0  53 2 0  54 2 0  55 2 0  56 2 0  57 2 0  58 2 0  59 2 0  60 2 0  61 2 0  62 2 0  63 2 0  64 2 0  65 2 0  66 2 0  67 2 0  68 2 0  69 2 0  70 2 0  71 2 0  72 2 0  73 2 0  74 2 0  75 2 0  76 2 0  77 2 0  78 2 0  79 2 0  80 2 0  81 2 0  82 2 0  83 2 0  84 2 0  85 2 0  86 2 0  87 2 0  88 2 0  89 2 0  90 2 0  91 2 0  92 2 0  93 2 0  94 2 0  95 2 0  96 2 0  97 2 0  98 2 0  99 2 0  100 2 0  0 3 0  1 3 0  2 3 0  3 3 0  4 3 0  5 3 0  6 3 0  7 3 0  8 3 0  9 3 0  10 3 0  11 3 0  12 3 0  13 3 0  14 3 0  15 3 0  16 3 0  17 3 0  18 3 0  19 3 0  20 3 0  21 3 0  22 3 0  23 3 0  24 3 0  25 3 0  26 3 0  27 3 0  28 3 0  29 3 0  30 3 0  31 3 0  32 3 0  33 3 0  34 3 0  35 3 0  36 3 0  37 3 0  38 3 0  39 3 0  40 3 0  41 3 0  42 3 0  43 3 0  44 3 0  45 3 0  46 3 0  47 3 0  48 3 0  49 3 0  50 3 0  51 3 0  52 3 0  53 3 0  54 3 0  55 3 0  56 3 0  57 3 0  58 3 0  59 3 0  60 3 0  61 3 0  62 3 0  63 3 0  64 3 0  65 3 0  66 3 0  67 3 0  68 3 0  69 3 0  70 3 0  71 3 0  72 3 0  73 3 0  74 3 0  75 3 0  76 3 0  77 3 0  78 3 0  79 3 0  80 3 0  81 3 0  82 3 0  83 3 0  84 3 0  85 3 0  86 3 0  87 3 0  88 3 0  89 3 0  90 3 0  91 3 0  92 3 0  93 3 0  94 3 0  95 3 0  96 3 0  97 3 0  98 3 0  99 3 0  100 3 0  0 4 0  1 4 0  2 4 0  3 4 0  4 4 0  5 4 0  6 4 0  7 4 0  8 4 0  9 4 0  10 4 0  11 4 0  12 4 0  13 4 0  14 4 0  15 4 0  16 4 0  17 4 0  18 4 0  19 4 0  20 4 0  21 4 0  22 4 0  23 4 0  24 4 0  25 4 0  26 4 0  27 4 0  28 4 0  29 4 0  30 4 0  31 4 0  32 4 0  33 4 0  34 4 0  35 4 0  36 4 0  37 4 0  38 4 0  39 4 0  40 4 0  41 4 0  42 4 0  43 4 0  44 4 0  45 4 0  46 4 0  47 4 0  48 4 0  49 4 0  50 4 0  51 4 0  52 4 0  53 4 0  54 4 0  55 4 0  56 4 0  57 4 0  58 4 0  59 4 0  60 4 0  61 4 0  62 4 0  63 4 0  64 4 0  65 4 0  66 4 0  67 4 0  68 4 0  69 4 0  70 4 0  71 4 0  72 4 0  73 4 0  74 4 0  75 4 0  76 4 0  77 4 0  78 4 0  79 4 0  80 4 0  81 4 0  82 4 0  83 4 0  84 4 0  85 4 0  86 4 0  87 4 0  88 4 0  89 4 0  90 4 0  91 4 0  92 4 0  93 4 0  94 4 0  95 4 0  96 4 0  97 4 0  98 4 0  99 4 0  100 4 0  0 5 0  1 5 0  2 5 0  3 5 0  4 5 0  5 5 0  6 5 0  7 5 0  8 5 0  9 5 0  10 5 0  11 5 0  12 5 0  13 5 0  14 5 0  15 5 0  16 5 0  17 5 0  18 5 0  19 5 0  20 5 0  21 5 0  22 5 0  23 5 0  24 5 0  25 5 0  26 5 0  27 5 0  28 5 0  29 5 0  30 5 0  31 5 0  32 5 0  33 5 0  34 5 0  35 5 0  36 5 0  37 5 0  38 5 0  39 5 0  40 5 0  41 5 0  42 5 0  43 5 0  44 5 0  45 5 0  46 5 0  47 5 0  48 5 0  49 5 0  50 5 0  51 5 0  52 5 0  53 5 0  54 5 0  55 5 0  56 5 0  57 5 0  58 5 0  59 5 0  60 5 0  61 5 0  62 5 0  63 5 0  64 5 0  65 5 0  66 5 0  67 5 0  68 5 0  69 5 0  70 5 0  71 5 0  72 5 0  73 5 0  74 5 0  75 5 0  76 5 0  77 5 0  78 5 0  79 5 0  80 5 0  81 5 0  82 5 0  83 5 0  84 5 0  85 5 0  86 5 0  87 5 0  88 5 0  89 5 0  90 5 0  91 5 0  92 5 0  93 5 0  94 5 0  95 5 0  96 5 0  97 5 0  98 5 0  99 5 0  100 5 0  0 6 0  1 6 0  2 6 0  3 6 0  4 6 0  5 6 0  6 6 0  7 6 0  8 6 0  9 6 0  10 6 0  11 6 0  12 6 0  13 6 0  14 6 0  15 6 0  16 6 0  17 6 0  18 6 0  19 6 0  20 6 0  21 6 0  22 6 0  23 6 0  24 6 0  25 6 0  26 6 0  27 6 0  28 6 0  29 6 0  30 6 0  31 6 0  32 6 0  33 6 0  34 6 0  35 6 0  36 6 0  37 6 0  38 6 0  39 6 0  40 6 0  41 6 0  42 6 0  43 6 0  44 6 0  45 6 0  46 6 0  47 6 0  48 6 0  49 6 0  50 6 0  51 6 0  52 6 0  53 6 0  54 6 0  55 6 0  56 6 0  57 6 0  58 6 0  59 6 0  60 6 0  61 6 0  62 6 0  63 6 0  64 6 0  65 6 0  66 6 0  67 6 0  68 6 0  69 6 0  70 6 0  71 6 0  72 6 0  73 6 0  74 6 0  75 6 0  76 6 0  77 6 0  78 6 0  79 6 0  80 6 0  81 6 0  82 6 0  83 6 0  84 6 0  85 6 0  86 6 0  87 6 0  88 6 0  89 6 0  90 6 0  91 6 0  92 6 0  93 6 0  94 6 0  95 6 0  96 6 0  97 6 0  98 6 0  99 6 0  100 6 0  0 7 0  1 7 0  2 7 0  3 7 0  4 7 0  5 7 0  6 7 0  7 7 0  8 7 0  9 7 0  10 7 0  11 7 0  12 7 0  13 7 0  14 7 0  15 7 0  16 7 0  17 7 0  18 7 0  19 7 0  20 7 0  21 7 0  22 7 0  23 7 0  24 7 0  25 7 0  26 7 0  27 7 0  28 7 0  29 7 0  30 7 0  31 7 0  32 7 0  33 7 0  34 7 0  35 7 0  36 7 0  37 7 0  38 7 0  39 7 0  40 7 0  41 7 0  42 7 0  43 7 0  44 7 0  45 7 0  46 7 0  47 7 0  48 7 0  49 7 0  50 7 0  51 7 0  52 7 0  53 7 0  54 7 0  55 7 0  56 7 0  57 7 0  58 7 0  59 7 0  60 7 0  61 7 0  62 7 0  63 7 0  64 7 0  65 7 0  66 7 0  67 7 0  68 7 0  69 7 0  70 7 0  71 7 0  72 7 0  73 7 0  74 7 0  75 7 0  76 7 0  77 7 0  78 7 0  79 7 0  80 7 0  81 7 0  82 7 0  83 7 0  84 7 0  85 7 0  86 7 0  87 7 0  88 7 0  89 7 0  90 7 0  91 7 0  92 7 0  93 7 0  94 7 0  95 7 0  96 7 0  97 7 0  98 7 0  99 7 0  100 7 0  0 8 0  1 8 0  2 8 0  3 8 0  4 8 0  5 8 0  6 8 0  7 8 0  8 8 0  9 8 0  10 8 0  11 8 0  12 8 0  13 8 0  14 8 0  15 8 0  16 8 0  17 8 0  18 8 0  19 8 0  20 8 0  21 8 0  22 8 0  23 8 0  24 8 0  25 8 0  26 8 0  27 8 0  28 8 0  29 8 0  30 8 0  31 8 0  32 8 0  33 8 0  34 8 0  35 8 0  36 8 0  37 8 0  38 8 0  39 8 0  40 8 0  41 8 0  42 8 0  43 8 0  44 8 0  45 8 0  46 8 0  47 8 0  48 8 0  49 8 0  50 8 0  51 8 0  52 8 0  53 8 0  54 8 0  55 8 0  56 8 0  57 8 0  58 8 0  59 8 0  60 8 0  61 8 0  62 8 0  63 8 0  64 8 0  65 8 0  66 8 0  67 8 0  68 8 0  69 8 0  70 8 0  71 8 0  72 8 0  73 8 0  74 8 0  75 8 0  76 8 0  77 8 0  78 8 0  79 8 0  80 8 0  81 8 0  82 8 0  83 8 0  84 8 0  85 8 0  86 8 0  87 8 0  88 8 0  89 8 0  90 8 0  91 8 0  92 8 0  93 8 0  94 8 0  95 8 0  96 8 0  97 8 0  98 8 0  99 8 0  100 8 0  0 9 0  1 9 0  2 9 0  3 9 0  4 9 0  5 9 0  6 9 0  7 9 0  8 9 0  9 9 0  10 9 0  11 9 0  12 9 0  13 9 0  14 9 0  15 9 0  16 9 0  17 9 0  18 9 0  19 9 0  20 9 0  21 9 0  22 9 0  23 9 0  24 9 0  25 9 0  26 9 0  27 9 0  28 9 0  29 9 0  30 9 0  31 9 0  32 9 0  33 9 0  34 9 0  35 9 0  36 9 0  37 9 0  38 9 0  39 9 0  40 9 0  41 9 0  42 9 0  43 9 0  44 9 0  45 9 0  46 9 0  47 9 0  48 9 0  49 9 0  50 9 0  51 9 0  52 9 0  53 9 0  54 9 0  55 9 0  56 9 0  57 9 0  58 9 0  59 9 0  60 9 0  61 9 0  62 9 0  63 9 0  64 9 0  65 9 0  66 9 0  67 9 0  68 9 0  69 9 0  70 9 0  71 9 0  72 9 0  73 9 0  74 9 0  75 9 0  76 9 0  77 9 0  78 9 0  79 9 0  80 9 0  81 9 0  82 9 0  83 9 0  84 9 0  85 9 0  86 9 0  87 9 0  88 9 0  89 9 0  90 9 0  91 9 0  92 9 0  93 9 0  94 9 0  95 9 0  96 9 0  97 9 0  98 9 0  99 9 0  100 9 0  0 10 0  1 10 0  2 10 0  3 10 0  4 10 0  5 10 0  6 10 0  7 10 0  8 10 0  9 10 0  10 10 0  11 10 0  12 10 0  13 10 0  14 10 0  15 10 0  16 10 0  17 10 0  18 10 0  19 10 0  20 10 0  21 10 0  22 10 0  23 10 0  24 10 0  25 10 0  26 10 0  27 10 0  28 10 0  29 10 0  30 10 0  31 10 0  32 10 0  33 10 0  34 10 0  35 10 0  36 10 0  37 10 0  38 10 0  39 10 0  40 10 0  41 10 0  42 10 0  43 10 0  44 10 0  45 10 0  46 10 0  47 10 0  48 10 0  49 10 0  50 10 0  51 10 0  52 10 0  53 10 0  54 10 0  55 10 0  56 10 0  57 10 0  58 10 0  59 10 0  60 10 0  61 10 0  62 10 0  63 10 0  64 10 0  65 10 0  66 10 0  67 10 0  68 10 0  69 10 0  70 10 0  71 10 0  72 10 0  73 10 0  74 10 0  75 10 0  76 10 0  77 10 0  78 10 0  79 10 0  80 10 0  81 10 0  82 10 0  83 10 0  84 10 0  85 10 0  86 10 0  87 10 0  88 10 0  89 10 0  90 10 0  91 10 0  92 10 0  93 10 0  94 10 0  95 10 0  96 10 0  97 10 0  98 10 0  99 10 0  100 10 0  0 11 0  1 11 0  2 11 0  3 11 0  4 11 0  5 11 0  6 11 0  7 11 0  8 11 0  9 11 0  10 11 0  11 11 0  12 11 0  13 11 0  14 11 0  15 11 0  16 11 0  17 11 0  18 11 0  19 11 0  20 11 0  21 11 0  22 11 0  23 11 0  24 11 0  25 11 0  26 11 0  27 11 0  28 11 0  29 11 0  30 11 0  31 11 0  32 11 0  33 11 0  34 11 0  35 11 0  36 11 0  37 11 0  38 11 0  39 11 0  40 11 0  41 11 0  42 11 0  43 11 0  44 11 0  45 11 0  46 11 0  47 11 0  48 11 0  49 11 0  50 11 0  51 11 0  52 11 0  53 11 0  54 11 0  55 11 0  56 11 0  57 11 0  58 11 0  59 11 0  60 11 0  61 11 0  62 11 0  63 11 0  64 11 0  65 11 0  66 11 0  67 11 0  68 11 0  69 11 0  70 11 0  71 11 0  72 11 0  73 11 0  74 11 0  75 11 0  76 11 0  77 11 0  78 11 0  79 11 0  80 11 0  81 11 0  82 11 0  83 11 0  84 11 0  85 11 0  86 11 0  87 11 0  88 11 0  89 11 0  90 11 0  91 11 0  92 11 0  93 11 0  94 11 0  95 11 0  96 11 0  97 11 0  98 11 0  99 11 0
[...]
<PointData  Scalars="f_3357-0"> 
<DataArray  type="Float64"  Name="f_3357-0"  format="ascii">6.2075022491609078e-01  6.1905402003232413e-01  6.1446777305699918e-01  6.0740758774674464e-01  5.9805847979671034e-01  5.8661567729008668e-01  5.7343294273384937e-01  5.5906915773567245e-01  5.4425459280396382e-01  5.2980365092539849e-01  5.1650411296554188e-01  5.0501828195056020e-01  4.9582528931877984e-01  4.8921182568108307e-01  4.8529550674435329e-01  4.8405672327346816e-01  4.8536179853299000e-01  4.8897281051909369e-01  4.9454936513799447e-01  5.0165240473879424e-01  5.0975988372871095e-01  5.1829914006963551e-01  5.2669261739449036e-01  5.3440637984784078e-01  5.4098919234220832e-01  5.4609477448133215e-01  5.4948745453328762e-01  5.5103692466120957e-01  5.5070894423111183e-01  5.4855673253474091e-01  5.4471463638307160e-01  5.3939294004184879e-01  5.3287096544210211e-01  5.2548515904138526e-01  5.1760997311429258e-01  5.0963194979897630e-01  5.0192052138790078e-01  4.9480097421787600e-01  4.8853457100641606e-01  4.8330828375720891e-01  4.7923355321551003e-01  4.7635156471626816e-01  4.7464224942969163e-01  4.7403504846040401e-01  4.7442052663089779e-01  4.7566258409366191e-01  4.7761113065773514e-01  4.8011481440934983e-01  4.8303300030887336e-01  4.8624591965081043e-01  4.8966190279489596e-01  4.9322088291491578e-01  4.9689382477677413e-01  5.0067824520936499e-01  5.0459042587628977e-01  5.0865521506658196e-01  5.1289448424682205e-01  5.1731539683342953e-01  5.2189970468236369e-01  5.2659531023925321e-01  5.3131125684556990e-01  5.3591704066142409e-01  5.4024661629272763e-01  5.4410675187231239e-01  5.4728867538887993e-01  5.4958150508248382e-01  5.5078596018343473e-01  5.5072730842765649e-01  5.4926724421265272e-01  5.4631512565596874e-01  5.4183942008153674e-01  5.3587998865244357e-01  5.2856068931328581e-01  5.2009970089164337e-01  5.1081274333095361e-01  5.0110368005519079e-01  4.9143953117109368e-01  4.8231254955156044e-01  4.7419776903815541e-01  4.6751639316385046e-01  4.6261207759504802e-01  4.5974090974288884e-01  4.5907055704266864e-01  4.6068181596224239e-01  4.6456640961399592e-01  4.7061738634282979e-01  4.7861274960011341e-01  4.8819924112025254e-01  4.9888968614144391e-01  5.1008838238239285e-01  5.2114801812887457e-01  5.3143864667226082e-01  5.4038818339975225e-01  5.4746113230004112e-01  5.5210335112557285e-01  5.5378687423948314e-01  5.5234217834892863e-01  5.4856943226498134e-01  5.4458131578741797e-01  5.4287741760678820e-01  5.4341871989398194e-01  6.1989094630642882e-01  6.1821155157134333e-01  6.1367464477138045e-01  6.0669274699911335e-01  5.9744606713484039e-01  5.8612569620611044e-01  5.7308192971663863e-01  5.5886912084153062e-01  5.4421041433525874e-01  5.2991072760664470e-01  5.1674802016277654e-01  5.0537687795833908e-01  4.9627216111509515e-01  4.8971947843449420e-01  4.8583730387486113e-01  4.8460753031512799e-01  4.8589788904269382e-01  4.8947170885998614e-01  4.9499010646659741e-01  5.0201636770594193e-01  5.1003200308521857e-01  5.1846904572038233e-01  5.2675520555968769e-01  5.3436154593102569e-01  5.4084081380836657e-01  5.4584930227844020e-01  5.4915252083600763e-01  5.5062024378099261e-01  5.5021760383444740e-01  5.4799684250025893e-01  5.4409124360815564e-01  5.3871010364728134e-01  5.3213189128904337e-01  5.2469230770198649e-01  5.1676508690781542e-01  5.0873599318575302e-01  5.0097358049736540e-01  4.9380219243169832e-01  4.8748219445926055e-01  4.8219985949393401e-01  4.7806628255953354e-01  4.7512278130242835e-01  4.7334997024726327e-01  4.7267853423680006e-01  4.7300078195307893e-01  4.7418272876234124e-01  4.7607658547847242e-01  4.7853326904332250e-01  4.8141416511053603e-01  4.8460109949508784e-01  4.8800345850232080e-01  4.9156165749901648e-01  4.9524660598009024e-01  4.9905531730716168e-01  5.0300324005192076e-01  5.0711418552330001e-01  5.1140890047913579e-01  5.1589343229365792e-01  5.2054849820461091e-01  5.2532109840917462e-01  5.3011954204328882e-01  5.3481278869636140e-01  5.3923448587849498e-01  5.4319136153179404e-01  5.4647490892925499e-01  5.4887484466910219e-01  5.5019281902034478e-01  5.5025531610487566e-01  5.4892541772396763e-01  5.4611383724065199e-01  5.4179005284372184e-01  5.3599416882858397e-01  5.2884903358297619e-01  5.2057015341216095e-01  5.1146879406442591e-01  5.0194296056815846e-01  4.9245331468745940e-01  4.8348642923968521e-01  4.7551333416803276e-01  4.6895332523128908e-01  4.6414997932745877e-01  4.6136037487105114e-01  4.6075331416313808e-01  4.6241005822233533e-01  4.6632160550624946e-01  4.7237901126583703e-01  4.8035751435399976e-01  4.8990142418782173e-01  5.0052291457361486e-01  5.1162860806174548e-01  5.2257683625872942e-01  5.3274603782572194e-01  5.4157427860961349e-01  5.4853674454412893e-01  5.5308740065932749e-01  5.5469547245195272e-01  5.5316260537880713e-01  5.4921982774646694e-01  5.4487752355329000e-01  5.4254099747869489e-01  5.4245070558294473e-01  6.1730276357902580e-01  6.1567080794215567e-01  6.1127330339529096e-01  6.0451291476493374e-01  5.9555643156605098e-01  5.8458336107662701e-01  5.7193435644323176e-01  5.5815121469472584e-01  5.4393721888289082e-01  5.3007065705219403e-01  5.1730164666307088e-01  5.0626252863033727e-01  4.9741538554215980e-01  4.9104200463468001e-01  4.8726269034318181e-01  4.8606330024593319e-01  4.8731562024781466e-01  4.9078690469314740e-01  4.9614314849930058e-01  5.0295495208050711e-01  5.1071450650077710e-01  5.1886757470332134e-01  5.2685700745501507e-01  5.3416809896170292e-01  5.4036489155548439e-01  5.4511101946777651e-01  5.4817547033650282e-01  5.4942845625561088e-01  5.4883356328791766e-01  5.4644043844842094e-01  5.4237938801991548e-01  5.3685671901249965e-01  5.3014801292376290e-01  5.2258611352323847e-01  5.1454177346794527e-01  5.0639754472519338e-01  4.9851858334124172e-01  4.9122588082943014e-01  4.8477686454834656e-01  4.7935569234254027e-01  4.7507252725937893e-01  4.7196919274652205e-01  4.7002836876656745e-01  4.6918433822646577e-01  4.6933435169627197e-01  4.7035035699512912e-01  4.7209099242564401e-01  4.7441351601964654e-01  4.7718498623810623e-01  4.8029174538649183e-01  4.8364622176257621e-01  4.8719028633389749e-01  4.9089480315499978e-01  4.9475547727807140e-01  4.9878551595339077e-01  5.0300591749307699e-01  5.0743438836144872e-01  5.1207400296625705e-01  5.1690280069567540e-01  5.2186555777600196e-01  5.2686891433291883e-01  5.3178078058338574e-01  5.3643442625435356e-01  5.4063692802455410e-01  5.4418091106137079e-01  5.4685804410697458e-01  5.4847272988068585e-01  5.4885488049241138e-01  5.4787139589693767e-01  5.4543668748689311e-01  5.4152301322660135e-01  5.3617123469169969e-01  5.2950163965444930e-01  5.2172271420840022e-01  5.1313382547850650e-01  5.0411706843235671e-01  4.9511547068883593e-01  4.8659935074515048e-01  4.7902761469515831e-01  4.7281287797737898e-01  4.6829698632470562e-01  4.6573837618357006e-01  4.6530791172327757e-01  4.6708748119405930e-01  4.7106593024936944e-01  4.7712925358260305e-01  4.8504615936995277e-01  4.9445595369405726e-01  5.0487107397326991e-01  5.1570651165568693e-01  5.2633752482738450e-01  5.3616617528287414e-01  5.4465826968462827e-01  5.5131796929055810e-01  5.5562183061564729e-01  5.5703397620396833e-01  5.5528501158911259e-01  5.5093757592895098e-01  5.4578026146847236e-01  5.4218565129543539e-01  5.4122486559604410e-01  6.1296916784160727e-01  6.1140820308561350e-01  6.0721980121348296e-01  6.0079269645361411e-01  5.9227410178101536e-01  5.8182644139455864e-01  5.6977620411231988e-01  5.5664681439216734e-01  5.4311233855238050e-01  5.2991152533521935e-01  5.1775253086768014e-01  5.0723324473964315e-01  4.9879475841453325e-01  4.9271109576009359e-01  4.8910368928949616e-01  4.8796356197799223e-01  4.8916877233683492e-01  4.9249352292058518e-01  4.9761278386450492e-01  5.0411000761189317e-01  5.1149511620134347e-01  5.1923572162351661e-01  5.2679810761201507e-01  5.3368924166031795e-01  5.3949029088677869e-01  5.4387616050525101e-01  5.4662149769664437e-01  5.4759776817547479e-01  5.4676685494285038e-01  5.4417494707741010e-01  5.3994790081796218e-01  5.3428691947253182e-01  5.2746186328111588e-01  5.1979914989569709e-01  5.1166239093654053e-01  5.0342651002411420e-01  4.9544905775696768e-01  4.8804413817012082e-01  4.8146370760001228e-01  4.7588841176697044e-01  4.7142717957403785e-01  4.6812299113483175e-01  4.6596202505703871e-01  4.6488421690172516e-01  4.6479428677100332e-01  4.6557296334479842e-01  4.6708830841829518e-01  4.6920686647695292e-01  4.7180405301336975e-01  4.7477295333567260e-01  4.7803065470928446e-01  4.8152140953683481e-01  4.8521627259492961e-01  4.8910926962539364e-01  4.9321053745324323e-01  4.9753716766364331e-01  5.0210268072450903e-01  5.0690618675767674e-01  5.1192238623254416e-01  5.1709362470800313e-01  5.2232517820086677e-01  5.2748470986326135e-01  5.3240633547373317e-01  5.3689901158162212e-01  5.4075821136757285e-01  5.4377935278212475e-01  5.4577139559697474e-01  5.4656944251020734e-01  5.4604588120549213e-01  5.4412030530849564e-01  5.4076887061664725e-01  5.3603363922860714e-01  5.3003166716726580e-01  5.2296213673637315e-01  5.1510823380136828e-01  5.0682981573046626e-01  4.9854436875954095e-01  4.9069741409634005e-01  4.8372769443280073e-01  4.7803453259121081e-01  4.7395325772657371e-01  4.7174053422036788e-01  4.7156727350377897e-01  4.7351450741171269e-01  4.7756766464808109e-01  4.8360682758660012e-01  4.9139448911234901e-01  5.0056751441501501e-01  5.1064425511440314e-01  5.2105678165697700e-01  5.3120798976412931e-01  5.4053485019464398e-01  5.4854202853939937e-01  5.5477374984415828e-01  5.5873943013583294e-01  5.5990267255350634e-01  5.5791308712232335e-01  5.5313987386951458e-01  5.4714806220932133e-01  5.4237284202813352e-01  5.4068932829271676e-01  6.0689852528574395e-01  6.0542488021268026e-01  6.0149456987433125e-01  5.9548079630612960e-01  5.8750775382649501e-01  5.7771720721726771e-01  5.6641823925072499e-01  5.5411175377560562e-01  5.4143620389455205e-01  5.2908204598769060e-01  5.1770556198695405e-01  5.0786083911587421e-01  4.9996059062065290e-01  4.9426630377362862e-01  4.9089832967863345e-01  4.8985280544784321e-01  4.9101576347892156e-01  4.9417157146544327e-01  4.9900879045625413e-01  5.0512957174007567e-01  5.1206827750055062e-01  5.1932135334775853e-01  5.2638510724956433e-01  5.3279383114003720e-01  5.3815024683202539e-01  5.4214373491991230e-01  5.4455675133307324e-01  5.4526331094423774e-01  5.4422415055388329e-01  5.4148178933108460e-01  5.3715648562844598e-01  5.3144202490274506e-01  5.2459890032191148e-01  5.1694217442921564e-01  5.0882246875627835e-01  5.0060096538849885e-01  4.9262201469439226e-01  4.8518842460570866e-01  4.7854381916026384e-01  4.7286402232079966e-01  4.6825670768260957e-01  4.6476690189688924e-01  4.6238572472296308e-01  4.6106049102173063e-01  4.6070523337915681e-01  4.6121132825353178e-01  4.6245809832321411e-01  4.6432313565338873e-01  4.6669183825577965e-01  4.6946544846906030e-01  4.7256683341941780e-01  4.7594338728491925e-01  4.7956672446093068e-01  4.8342919157582948e-01  4.8753757006601373e-01  4.9190461485712095e-01  4.9653926792434749e-01  5.0143652151618201e-01  5.0656801255889317e-01  5.1187450344030849e-01  5.1726138715045566e-01  5.2259815017739042e-01  5.2772226249638443e-01  5.3244727514105827e-01  5.3657417144750263e-01  5.3990450133970902e-01  5.4225373623722117e-01  5.4346364274681147e-01  5.4341311780143731e-01  5.4202758345423918e-01  5.3928744055485334e-01  5.3523602532017045e-01  5.2998688744943268e-01  5.2372907310259786e-01  5.1672785686033362e-01  5.0931784043090300e-01  5.0188638750615533e-01  4.9484811202457218e-01  4.8861439710844062e-01  4.8356374719360251e-01  4.8001793717412317e-01  4.7822594033837884e-01  4.7835427351817905e-01  4.8048034349550800e-01  4.8458529970915754e-01  4.9054474677787385e-01  4.9811913417380094e-01  5.0694992039604203e-01  5.1657064787293427e-01  5.2644051284163618e-01  5.3599904022474898e-01  5.4472480314868554e-01  5.5216584612649400e-01  5.5791038722268249e-01  5.6150637325761865e-01  5.6242635870241942e-01  5.6025373860988925e-01  5.5518634135679568e-01  5.4859220180129753e-01  5.4294817083292712e-01  5.4073102753472191e-01  5.9914823843141574e-01  5.9777364031055524e-01  5.9413730493822337e-01  5.8859719979926794e-01  5.8125305626177914e-01  5.7222342494520451e-01  5.6179682185255886e-01  5.5044761335596382e-01  5.3877346818107696e-01  5.2741037212857089e-01  5.1695601737337360e-01  5.0791400420473198e-01  5.0066264202271993e-01  4.9544616348829051e-01  4.9238094135539234e-01  4.9146739711153564e-01  4.9260075844604601e-01  4.9557863060024010e-01  5.0010774861934471e-01  5.0581457690256570e-01  5.1226397491352194e-01  5.1898713236425165e-01  5.2551569662935882e-01  5.3141577971075415e-01  5.3631531193286908e-01  5.3992104742067148e-01  5.4202548846755771e-01  5.4250681047144678e-01  5.4132552367475006e-01  5.3852052886266566e-01  5.3420540905143477e-01  5.2856405932530792e-01  5.2184359705698147e-01  5.1434231006932518e-01  5.0639146819968783e-01  4.9833196280961028e-01  4.9048904861040049e-01  4.8314967020492766e-01  4.7654620558650573e-01  4.7084834237135731e-01  4.6616245647618193e-01  4.6253641520692962e-01  4.5996750502648515e-01  4.5841177892852791e-01  4.5779389920058050e-01  4.5801709318272299e-01  4.5897302713295846e-01  4.6055132542723221e-01  4.6264827578353407e-01  4.6517410673349047e-01  4.6805819099625112e-01  4.7125164684691634e-01  4.7472705268324766e-01  4.7847529567205177e-01  4.8249987505499070e-01  4.8680922692170869e-01  4.9140781744669870e-01  4.9628688253571485e-01  5.0141579651139445e-01  5.0673512857134162e-01  5.1215244370979018e-01  5.1754173769758138e-01  5.2274699238658517e-01  5.2758971749828376e-01  5.3187965905305457e-01  5.3542733978880130e-01  5.3805695401982878e-01  5.3961841342360417e-01  5.3999789249540864e-01  5.3912680656264855e-01  5.3698952770185604e-01  5.3363013363355860e-01  5.2915802155694802e-01  5.2375138257311626e-01  5.1765664454535398e-01  5.1118163520164683e-01  5.0468098715173593e-01  4.9853428595267701e-01  4.9311985441735601e-01  4.8878852092969166e-01  4.8584130083919380e-01  4.8451286215885719e-01  4.8496015176063195e-01  4.8725390679489528e-01  4.9137066050289591e-01  4.9718435360674074e-01  5.0445945827834215e-01  5.1285076650153949e-01  5.2191698992408009e-01  5.3115367420149318e-01  5.4004365559670686e-01  5.4811045079165754e-01  5.5494603812065113e-01  5.6018234803340095e-01  5.6340822803437429e-01  5.6411531768176904e-01  5.6184371454967852e-01  5.5665299717838546e-01  5.4973073545370044e-01  5.4353372760770868e-01  5.4094881017373198e-01  5.8983124953539279e-01  5.8856560165833327e-01  5.8525399221265373e-01  5.8024052581413865e-01  5.7360004272302922e-01  5.6542531327508616e-01  5.5598009912740665e-01  5.4570709949707030e-01  5.3515786972005208e-01  5.2490895786820424e-01  5.1549492297465516e-01  5.0736446856776141e-01  5.0085711828952550e-01  4.9619588552561977e-01  4.9349030788497950e-01  4.9274393396715299e-01  4.9386197713324054e-01  4.9665790082233235e-01  5.0086066648526673e-01  5.0612596727842774e-01  5.1205433722089999e-01  5.1821666634428887e-01  5.2418441240729652e-01  5.2955943244518122e-01  5.3399827972641867e-01  5.3722800741595811e-01  5.3905355909336072e-01  5.3935903341305813e-01  5.3810569854832879e-01  5.3532886244181654e-01  5.3113430410826989e-01  5.2569358943485811e-01  5.1923668260480804e-01  5.1204016784072082e-01  5.0441031719859863e-01  4.9666198446533127e-01  4.8909612888030296e-01  4.8197968603125918e-01  4.7553094767686027e-01  4.6991191017932682e-01  4.6522716025218902e-01  4.6152766129415806e-01  4.5881755436081251e-01  4.5706249885056482e-01  4.5619866887182531e-01  4.5614195389197632e-01  4.5679708256953949e-01  4.5806635464725115e-01  4.5985754442609511e-01  4.6209043941008460e-01  4.6470147012550184e-01  4.6764599622191477e-01  4.7089802114230289e-01  4.7444736578072511e-01  4.7829458686555693e-01  4.8244413922797835e-01  4.8689644020667433e-01  4.9163961080361707e-01  4.9664176030408408e-01  5.0184474880573904e-01  5.0716036701421829e-01  5.1246974265239409e-01  5.1762645282842890e-01  5.2246329630270572e-01  5.2680207353318009e-01  5.3046523286397596e-01  5.3328805072279439e-01  5.3513018363839238e-01  5.3588586218586520e-01  5.3549248737446886e-01  5.3393772560759767e-01  5.3126523325491470e-01  5.2757883214198475e-01  5.2304438743227244e-01  5.1788805871963528e-01  5.1238940264553101e-01  5.0686837778315386e-01  5.0166667584493230e-01  4.9712545608507624e-01  4.9356261435751375e-01  4.9125253299853244e-01  4.9040992434530944e-01  4.9117766312554673e-01  4.9361731154749561e-01  4.9770095173131856e-01  5.0330406288124419e-01  5.1020121792402384e-01  5.1806860593477921e-01  5.2649861098303219e-01  5.3503034976784758e-01  5.4319467266949106e-01  5.5056186309362065e-01  5.5676729642892941e-01  5.6148520251929701e-01  5.6434613284025670e-01  5.6486905481123040e-01  5.6257142836433405e-01  5.5740329750438866e-01  5.5038141414937569e-01  5.4388568830208417e-01  5.4106288428925486e-01  5.7911147549698971e-01  5.7796409314872643e-01  5.7500627798754023e-01  5.7057014842963816e-01  5.6470562185927264e-01  5.5747656800470857e-01  5.4911637899034549e-01  5.4002957080316227e-01  5.3071583464987959e-01  5.2168816368833615e-01  5.1341520235880711e-01  5.0628834479947982e-01  5.0060558504610575e-01  4.9656573928421205e-01  4.9426899747769576e-01  4.9372074954182649e-01  4.9483655743866439e-01  4.9744773291108318e-01  5.0130871139800648e-01  5.0610837862201030e-01  5.1148710580550083e-01  5.1705950764372655e-01  5.2244062648759981e-01  5.2727161345636031e-01  5.3124098326271763e-01  5.3409912718837715e-01  5.3566598558729284e-01  5.3583343949911988e-01  5.3456449481072055e-01  5.3189083775390911e-01  5.2790933714616528e-01  5.2277705282843301e-01  5.1670365528480022e-01  5.0994014301829260e-01  5.0276348612025612e-01  4.9545814001721283e-01  4.8829669768618139e-01  4.8152257963355760e-01  4.7533722312576998e-01  4.6989296587668278e-01  4.6529140051275708e-01  4.6158602764754353e-01  4.5878776928558435e-01  4.5687213434239388e-01  4.5578722279733430e-01  4.5546206653787524e-01  4.5581494479985102e-01  4.5676131056404334e-01  4.5822090051428216e-01  4.6012355317986431e-01  4.6241327996668147e-01  4.6505024027190311e-01  4.6801045117018464e-01  4.7128327906758616e-01  4.7486697435858044e-01  4.7876268970199959e-01  4.8296755686912290e-01  4.8746749375892723e-01  4.9223048648250112e-01  4.9720114348298883e-01  5.0229732287956741e-01  5.0740953593898508e-01  5.1240357409035220e-01  5.1712638737068062e-01  5.2141473624400914e-01  5.2510569660436290e-01  5.2804787360411065e-01  5.3011224537266122e-01  5.3120185811604104e-01  5.3125997757468812e-01  5.3027659501669477e-01  5.2829326580683356e-01  5.2540609167224506e-01  5.2176631608545043e-01  5.1757766732855714e-01  5.1308951463889896e-01  5.0858532082955488e-01  5.0436678333369345e-01  5.0073512945877663e-01  4.9797173921467508e-01  4.9632021127389397e-01  4.9597119464819683e-01  4.9705023457729636e-01  4.9960811441323189e-01  5.0361312262512481e-01  5.0894541520084813e-01  5.1539494091908511e-01  5.2266575671288318e-01  5.3039029759839029e-01  5.3815638900070850e-01  5.4554618637215280e-01  5.5217814017605771e-01  5.5773083812638402e-01  5.6191985374946285e-01  5.6441791331959068e-01  5.6477746257028327e-01  5.6250932552408606e-01  5.5747634678941826e-01  5.5053192374795745e-01  5.4393547795708364e-01  5.4097691174769924e-01  5.6719930651849759e-01  5.6617849116386265e-01  5.6360049990204097e-01  5.5978773240979729e-01  5.5476554589881599e-01  5.4856540609844950e-01  5.4138367929552655e-01  5.3357935830668635e-01  5.2559464258045330e-01  5.1787599780240512e-01  5.1082510499958111e-01  5.0477541132305392e-01  4.9998205817264935e-01  4.9661757056554584e-01  4.9477061921659837e-01  4.9444704193488342e-01  4.9557266965150215e-01  4.9799795618549270e-01  5.0150515857456801e-01  5.0581927329468301e-01  5.1062358003517838e-01  5.155794421