<?xml version="1.0"?>
<VTKFile type="UnstructuredGrid"  version="0.1"  >
<UnstructuredGrid>
<Piece  NumberOfPoints="20201" NumberOfCells="40000">
<Points>
<DataArray  type="Float64"  NumberOfComponents="3"  format="ascii">0 0 0  1 0 0  2 0 0  3 0 0  4 0 0  5 0 0  6 0 0  7 0 0  8 0 0  9 0 0  10 0 0  11 0 0  12 0 0  13 0 0  14 0 0  15 0 0  16 0 0  17 0 0  18 0 0  19 0 0  20 0 0  21 0 0  22 0 0  23 0 0  24 0 0  25 0 0  26 0 0  27 0 0  28 0 0  29 0 0  30 0 0  31 0 0  32 0 0  33 0 0  34 0 0  35 0 0  36 0 0  37 0 0  38 0 0  39 0 0  40 0 0  41 0 0  42 0 0  43 0 0  44 0 0  45 0 0  46 0 0  47 0 0  48 0 0  49 0 0  50 0 0  51 0 0  52 0 0  53 0 0  54 0 0  55 0 0  56 0 0  57 0 0  58 0 0  59 0 0  60 0 0  61 0 0  62 0 0  63 0 0  64 0 0  65 0 0  66 0 0  67 0 0  68 0 0  69 0 0  70 0 0  71 0 0  72 0 0  73 0 0  74 0 0  75 0 0  76 0 0  77 0 0  78 0 0  79 0 0  80 0 0  81 0 0  82 0 0  83 0 0  84 0 0  85 0 0  86 0 0  87 0 0  88 0 0  89 0 0  90 0 0  91 0 0  92 0 0  93 0 0  94 0 0  95 0 0  96 0 0  97 0 0  98 0 0  99 0 0  100 0 0  0 1 0  1 1 0  2 1 0  3 1 0  4 1 0  5 1 0  6 1 0  7 1 0  8 1 0  9 1 0  10 1 0  11 1 0  12 1 0  13 1 0  14 1 0  15 1 0  16 1 0  17 1 0  18 1 0  19 1 0  20 1 0  21 1 0  22 1 0  23 1 0  24 1 0  25 1 0  26 1 0  27 1 0  28 1 0  29 1 0  30 1 0  31 1 0  32 1 0  33 1 0  34 1 0  35 1 0  36 1 0  37 1 0  38 1 0  39 1 0  40 1 0  41 1 0  42 1 0  43 1 0  44 1 0  45 1 0  46 1 0  47 1 0  48 1 0  49 1 0  50 1 0  51 1 0  52 1 0  53 1 0  54 1 0  55 1 0  56 1 0  57 1 0  58 1 0  59 1 0  60 1 0  61 1 0  62 1 0  63 1 0  64 1 0  65 1 0  66 1 0  67 1 0  68 1 0  69 1 0  70 1 0  71 1 0  72 1 0  73 1 0  74 1 0  75 1 0  76 1 0  77 1 0  78 1 0  79 1 0  80 1 0  81 1 0  82 1 0  83 1 0  84 1 0  85 1 0  86 1 0  87 1 0  88 1 0  89 1 0  90 1 0  91 1 0  92 1 0  93 1 0  94 1 0  95 1 0  96 1 0  97 1 0  98 1 0  99 1 0  100 1 0  0 2 0  1 2 0  2 2 0  3 2 0  4 2 0  5 2 0  6 2 0  7 2 0  8 2 0  9 2 0  10 2 0  11 2 0  12 2 0  13 2 0  14 2 0  15 2 0  16 2 0  17 2 0  18 2 0  19 2 0  20 2 0  21 2 0  22 2 0  23 2 0  24 2 0  25 2 0  26 2 0  27 2 0  28 2 0  29 2 0  30 2 0  31 2 0  32 2 0  33 2 0  34 2 0  35 2 0  36 2 0  37 2 0  38 2 0  39 2 0  40 2 0  41 2 0  42 2 0  43 2 0  44 2 0  45 2 0  46 2 0  47 2 0  48 2 0  49 2 0  50 2 0  51 2 0  52 2 0  53 2 0  54 2 0  55 2 0  56 2 0  57 2 0  58 2 0  59 2 0  60 2 0  61 2 0  62 2 0  63 2 0  64 2 0  65 2 0  66 2 0  67 2 0  68 2 0  69 2 0  70 2 0  71 2 0  72 2 0  73 2 0  74 2 0  75 2 0  76 2 0  77 2 0  78 2 0  79 2 0  80 2 0  81 2 0  82 2 0  83 2 0  84 2 0  85 2 0  86 2 0  87 2 0  88 2 0  89 2 0  90 2 0  91 2 0  92 2 0  93 2 0  94 2 0  95 2 0  96 2 0  97 2 0  98 2 0  99 2 0  100 2 0  0 3 0  1 3 0  2 3 0  3 3 0  4 3 0  5 3 0  6 3 0  7 3 0  8 3 0  9 3 0  10 3 0  11 3 0  12 3 0  13 3 0  14 3 0  15 3 0  16 3 0  17 3 0  18 3 0  19 3 0  20 3 0  21 3 0  22 3 0  23 3 0  24 3 0  25 3 0  26 3 0  27 3 0  28 3 0  29 3 0  30 3 0  31 3 0  32 3 0  33 3 0  34 3 0  35 3 0  36 3 0  37 3 0  38 3 0  39 3 0  40 3 0  41 3 0  42 3 0  43 3 0  44 3 0  45 3 0  46 3 0  47 3 0  48 3 0  49 3 0  50 3 0  51 3 0  52 3 0  53 3 0  54 3 0  55 3 0  56 3 0  57 3 0  58 3 0  59 3 0  60 3 0  61 3 0  62 3 0  63 3 0  64 3 0  65 3 0  66 3 0  67 3 0  68 3 0  69 3 0  70 3 0  71 3 0  72 3 0  73 3 0  74 3 0  75 3 0  76 3 0  77 3 0  78 3 0  79 3 0  80 3 0  81 3 0  82 3 0  83 3 0  84 3 0  85 3 0  86 3 0  87 3 0  88 3 0  89 3 0  90 3 0  91 3 0  92 3 0  93 3 0  94 3 0  95 3 0  96 3 0  97 3 0  98 3 0  99 3 0  100 3 0  0 4 0  1 4 0  2 4 0  3 4 0  4 4 0  5 4 0  6 4 0  7 4 0  8 4 0  9 4 0  10 4 0  11 4 0  12 4 0  13 4 0  14 4 0  15 4 0  16 4 0  17 4 0  18 4 0  19 4 0  20 4 0  21 4 0  22 4 0  23 4 0  24 4 0  25 4 0  26 4 0  27 4 0  28 4 0  29 4 0  30 4 0  31 4 0  32 4 0  33 4 0  34 4 0  35 4 0  36 4 0  37 4 0  38 4 0  39 4 0  40 4 0  41 4 0  42 4 0  43 4 0  44 4 0  45 4 0  46 4 0  47 4 0  48 4 0  49 4 0  50 4 0  51 4 0  52 4 0  53 4 0  54 4 0  55 4 0  56 4 0  57 4 0  58 4 0  59 4 0  60 4 0  61 4 0  62 4 0  63 4 0  64 4 0  65 4 0  66 4 0  67 4 0  68 4 0  69 4 0  70 4 0  71 4 0  72 4 0  73 4 0  74 4 0  75 4 0  76 4 0  77 4 0  78 4 0  79 4 0  80 4 0  81 4 0  82 4 0  83 4 0  84 4 0  85 4 0  86 4 0  87 4 0  88 4 0  89 4 0  90 4 0  91 4 0  92 4 0  93 4 0  94 4 0  95 4 0  96 4 0  97 4 0  98 4 0  99 4 0  100 4 0  0 5 0  1 5 0  2 5 0  3 5 0  4 5 0  5 5 0  6 5 0  7 5 0  8 5 0  9 5 0  10 5 0  11 5 0  12 5 0  13 5 0  14 5 0  15 5 0  16 5 0  17 5 0  18 5 0  19 5 0  20 5 0  21 5 0  22 5 0  23 5 0  24 5 0  25 5 0  26 5 0  27 5 0  28 5 0  29 5 0  30 5 0  31 5 0  32 5 0  33 5 0  34 5 0  35 5 0  36 5 0  37 5 0  38 5 0  39 5 0  40 5 0  41 5 0  42 5 0  43 5 0  44 5 0  45 5 0  46 5 0  47 5 0  48 5 0  49 5 0  50 5 0  51 5 0  52 5 0  53 5 0  54 5 0  55 5 0  56 5 0  57 5 0  58 5 0  59 5 0  60 5 0  61 5 0  62 5 0  63 5 0  64 5 0  65 5 0  66 5 0  67 5 0  68 5 0  69 5 0  70 5 0  71 5 0  72 5 0  73 5 0  74 5 0  75 5 0  76 5 0  77 5 0  78 5 0  79 5 0  80 5 0  81 5 0  82 5 0  83 5 0  84 5 0  85 5 0  86 5 0  87 5 0  88 5 0  89 5 0  90 5 0  91 5 0  92 5 0  93 5 0  94 5 0  95 5 0  96 5 0  97 5 0  98 5 0  99 5 0  100 5 0  0 6 0  1 6 0  2 6 0  3 6 0  4 6 0  5 6 0  6 6 0  7 6 0  8 6 0  9 6 0  10 6 0  11 6 0  12 6 0  13 6 0  14 6 0  15 6 0  16 6 0  17 6 0  18 6 0  19 6 0  20 6 0  21 6 0  22 6 0  23 6 0  24 6 0  25 6 0  26 6 0  27 6 0  28 6 0  29 6 0  30 6 0  31 6 0  32 6 0  33 6 0  34 6 0  35 6 0  36 6 0  37 6 0  38 6 0  39 6 0  40 6 0  41 6 0  42 6 0  43 6 0  44 6 0  45 6 0  46 6 0  47 6 0  48 6 0  49 6 0  50 6 0  51 6 0  52 6 0  53 6 0  54 6 0  55 6 0  56 6 0  57 6 0  58 6 0  59 6 0  60 6 0  61 6 0  62 6 0  63 6 0  64 6 0  65 6 0  66 6 0  67 6 0  68 6 0  69 6 0  70 6 0  71 6 0  72 6 0  73 6 0  74 6 0  75 6 0  76 6 0  77 6 0  78 6 0  79 6 0  80 6 0  81 6 0  82 6 0  83 6 0  84 6 0  85 6 0  86 6 0  87 6 0  88 6 0  89 6 0  90 6 0  91 6 0  92 6 0  93 6 0  94 6 0  95 6 0  96 6 0  97 6 0  98 6 0  99 6 0  100 6 0  0 7 0  1 7 0  2 7 0  3 7 0  4 7 0  5 7 0  6 7 0  7 7 0  8 7 0  9 7 0  10 7 0  11 7 0  12 7 0  13 7 0  14 7 0  15 7 0  16 7 0  17 7 0  18 7 0  19 7 0  20 7 0  21 7 0  22 7 0  23 7 0  24 7 0  25 7 0  26 7 0  27 7 0  28 7 0  29 7 0  30 7 0  31 7 0  32 7 0  33 7 0  34 7 0  35 7 0  36 7 0  37 7 0  38 7 0  39 7 0  40 7 0  41 7 0  42 7 0  43 7 0  44 7 0  45 7 0  46 7 0  47 7 0  48 7 0  49 7 0  50 7 0  51 7 0  52 7 0  53 7 0  54 7 0  55 7 0  56 7 0  57 7 0  58 7 0  59 7 0  60 7 0  61 7 0  62 7 0  63 7 0  64 7 0  65 7 0  66 7 0  67 7 0  68 7 0  69 7 0  70 7 0  71 7 0  72 7 0  73 7 0  74 7 0  75 7 0  76 7 0  77 7 0  78 7 0  79 7 0  80 7 0  81 7 0  82 7 0  83 7 0  84 7 0  85 7 0  86 7 0  87 7 0  88 7 0  89 7 0  90 7 0  91 7 0  92 7 0  93 7 0  94 7 0  95 7 0  96 7 0  97 7 0  98 7 0  99 7 0  100 7 0  0 8 0  1 8 0  2 8 0  3 8 0  4 8 0  5 8 0  6 8 0  7 8 0  8 8 0  9 8 0  10 8 0  11 8 0  12 8 0  13 8 0  14 8 0  15 8 0  16 8 0  17 8 0  18 8 0  19 8 0  20 8 0  21 8 0  22 8 0  23 8 0  24 8 0  25 8 0  26 8 0  27 8 0  28 8 0  29 8 0  30 8 0  31 8 0  32 8 0  33 8 0  34 8 0  35 8 0  36 8 0  37 8 0  38 8 0  39 8 0  40 8 0  41 8 0  42 8 0  43 8 0  44 8 0  45 8 0  46 8 0  47 8 0  48 8 0  49 8 0  50 8 0  51 8 0  52 8 0  53 8 0  54 8 0  55 8 0  56 8 0  57 8 0  58 8 0  59 8 0  60 8 0  61 8 0  62 8 0  63 8 0  64 8 0  65 8 0  66 8 0  67 8 0  68 8 0  69 8 0  70 8 0  71 8 0  72 8 0  73 8 0  74 8 0  75 8 0  76 8 0  77 8 0  78 8 0  79 8 0  80 8 0  81 8 0  82 8 0  83 8 0  84 8 0  85 8 0  86 8 0  87 8 0  88 8 0  89 8 0  90 8 0  91 8 0  92 8 0  93 8 0  94 8 0  95 8 0  96 8 0  97 8 0  98 8 0  99 8 0  100 8 0  0 9 0  1 9 0  2 9 0  3 9 0  4 9 0  5 9 0  6 9 0  7 9 0  8 9 0  9 9 0  10 9 0  11 9 0  12 9 0  13 9 0  14 9 0  15 9 0  16 9 0  17 9 0  18 9 0  19 9 0  20 9 0  21 9 0  22 9 0  23 9 0  24 9 0  25 9 0  26 9 0  27 9 0  28 9 0  29 9 0  30 9 0  31 9 0  32 9 0  33 9 0  34 9 0  35 9 0  36 9 0  37 9 0  38 9 0  39 9 0  40 9 0  41 9 0  42 9 0  43 9 0  44 9 0  45 9 0  46 9 0  47 9 0  48 9 0  49 9 0  50 9 0  51 9 0  52 9 0  53 9 0  54 9 0  55 9 0  56 9 0  57 9 0  58 9 0  59 9 0  60 9 0  61 9 0  62 9 0  63 9 0  64 9 0  65 9 0  66 9 0  67 9 0  68 9 0  69 9 0  70 9 0  71 9 0  72 9 0  73 9 0  74 9 0  75 9 0  76 9 0  77 9 0  78 9 0  79 9 0  80 9 0  81 9 0  82 9 0  83 9 0  84 9 0  85 9 0  86 9 0  87 9 0  88 9 0  89 9 0  90 9 0  91 9 0  92 9 0  93 9 0  94 9 0  95 9 0  96 9 0  97 9 0  98 9 0  99 9 0  100 9 0  0 10 0  1 10 0  2 10 0  3 10 0  4 10 0  5 10 0  6 10 0  7 10 0  8 10 0  9 10 0  10 10 0  11 10 0  12 10 0  13 10 0  14 10 0  15 10 0  16 10 0  17 10 0  18 10 0  19 10 0  20 10 0  21 10 0  22 10 0  23 10 0  24 10 0  25 10 0  26 10 0  27 10 0  28 10 0  29 10 0  30 10 0  31 10 0  32 10 0  33 10 0  34 10 0  35 10 0  36 10 0  37 10 0  38 10 0  39 10 0  40 10 0  41 10 0  42 10 0  43 10 0  44 10 0  45 10 0  46 10 0  47 10 0  48 10 0  49 10 0  50 10 0  51 10 0  52 10 0  53 10 0  54 10 0  55 10 0  56 10 0  57 10 0  58 10 0  59 10 0  60 10 0  61 10 0  62 10 0  63 10 0  64 10 0  65 10 0  66 10 0  67 10 0  68 10 0  69 10 0  70 10 0  71 10 0  72 10 0  73 10 0  74 10 0  75 10 0  76 10 0  77 10 0  78 10 0  79 10 0  80 10 0  81 10 0  82 10 0  83 10 0  84 10 0  85 10 0  86 10 0  87 10 0  88 10 0  89 10 0  90 10 0  91 10 0  92 10 0  93 10 0  94 10 0  95 10 0  96 10 0  97 10 0  98 10 0  99 10 0  100 10 0  0 11 0  1 11 0  2 11 0  3 11 0  4 11 0  5 11 0  6 11 0  7 11 0  8 11 0  9 11 0  10 11 0  11 11 0  12 11 0  13 11 0  14 11 0  15 11 0  16 11 0  17 11 0  18 11 0  19 11 0  20 11 0  21 11 0  22 11 0  23 11 0  24 11 0  25 11 0  26 11 0  27 11 0  28 11 0  29 11 0  30 11 0  31 11 0  32 11 0  33 11 0  34 11 0  35 11 0  36 11 0  37 11 0  38 11 0  39 11 0  40 11 0  41 11 0  42 11 0  43 11 0  44 11 0  45 11 0  46 11 0  47 11 0  48 11 0  49 11 0  50 11 0  51 11 0  52 11 0  53 11 0  54 11 0  55 11 0  56 11 0  57 11 0  58 11 0  59 11 0  60 11 0  61 11 0  62 11 0  63 11 0  64 11 0  65 11 0  66 11 0  67 11 0  68 11 0  69 11 0  70 11 0  71 11 0  72 11 0  73 11 0  74 11 0  75 11 0  76 11 0  77 11 0  78 11 0  79 11 0  80 11 0  81 11 0  82 11 0  83 11 0  84 11 0  85 11 0  86 11 0  87 11 0  88 11 0  89 11 0  90 11 0  91 11 0  92 11 0  93 11 0  94 11 0  95 11 0  96 11 0  97 11 0  98 11 0  99 11 0
[...]
<PointData  Scalars="f_3357-0"> 
<DataArray  type="Float64"  Name="f_3357-0"  format="ascii">6.2645657468084104e-01  6.2519792019263754e-01  6.2195336744288165e-01  6.1715395437827025e-01  6.1080415193508353e-01  6.0254072983107365e-01  5.9172117395381429e-01  5.7763316069158266e-01  5.5989778360195641e-01  5.3899618482397893e-01  5.1659235258202363e-01  4.9523998443360084e-01  4.7748969350656356e-01  4.6501883939769284e-01  4.5837422042708598e-01  4.5728772930743938e-01  4.6112264243196388e-01  4.6912211445701307e-01  4.8041775168229939e-01  4.9394062351856771e-01  5.0841337876046888e-01  5.2251024746957564e-01  5.3511640917583159e-01  5.4552807688042970e-01  5.5348718555328391e-01  5.5906801214623270e-01  5.6250554181935031e-01  5.6404498686867421e-01  5.6384735296471655e-01  5.6195357038348726e-01  5.5829975100992668e-01  5.5277778178979753e-01  5.4533475055030622e-01  5.3609226967230827e-01  5.2544374332640431e-01  5.1407213867663737e-01  5.0285109046752385e-01  4.9265425106765665e-01  4.8415916013077365e-01  4.7773523636079113e-01  4.7344712771688047e-01  4.7113941982469865e-01  4.7054385694683121e-01  4.7136504941099705e-01  4.7332829096919421e-01  4.7619379318901206e-01  4.7975084053738160e-01  4.8380622874385104e-01  4.8817772786546104e-01  4.9269773443803949e-01  4.9722641346964747e-01  5.0166893496860976e-01  5.0598910588220403e-01  5.1021234109911306e-01  5.1441411700128303e-01  5.1869467982506612e-01  5.2314542782683315e-01  5.2781567751611191e-01  5.3268928022333983e-01  5.3767808877049472e-01  5.4263395609153298e-01  5.4737458359377322e-01  5.5171382160943305e-01  5.5548601774703810e-01  5.5855676140599964e-01  5.6081703769880664e-01  5.6216221986320369e-01  5.6246062225015370e-01  5.6151927211396901e-01  5.5905862546887419e-01  5.5471377575955194e-01  5.4808489983349873e-01  5.3885618635251076e-01  5.2697661525597694e-01  5.1284084557451159e-01  4.9735298777513942e-01  4.8177333846388110e-01  4.6737948316268563e-01  4.5512353781408466e-01  4.4547643297214790e-01  4.3850704059836715e-01  4.3410164668068457e-01  4.3219467346384211e-01  4.3292298364665110e-01  4.3665981808698595e-01  4.4390200369720123e-01  4.5499892264480829e-01  4.6977378016925431e-01  4.8721745577672543e-01  5.0552736798706210e-01  5.2261428035700630e-01  5.3682812957156645e-01  5.4746133843951239e-01  5.5481621900382827e-01  5.5995311410240822e-01  5.6431287057335833e-01  5.6929652533284625e-01  5.7581089412990172e-01  5.8380609569176234e-01  5.9181825223804341e-01  5.9607520152439508e-01  6.2604618026239789e-01  6.2478439134746178e-01  6.2153148760639132e-01  6.1672111462782064e-01  6.1036177975147354e-01  6.0209696115310773e-01  5.9129536684590989e-01  5.7726081671320029e-01  5.5963118894092956e-01  5.3889434728336594e-01  5.1669946490209129e-01  4.9556455088019857e-01  4.7800111545726209e-01  4.6566327019996456e-01  4.5909455931896359e-01  4.5803416619697823e-01  4.6185260448273741e-01  4.6979612581123609e-01  4.8099778484206906e-01  4.9439378181230220e-01  5.0871895550186486e-01  5.2266495271664171e-01  5.3513354217374931e-01  5.4543094551818683e-01  5.5330070215139404e-01  5.5881225226976827e-01  5.6219261401422504e-01  5.6367858106353164e-01  5.6342381218004400e-01  5.6146373317539622e-01  5.5773138830067159e-01  5.5211876098701218e-01  5.4457689106366391e-01  5.3523516739770916e-01  5.2449697781933624e-01  5.1305410811454988e-01  5.0178404869477666e-01  4.9155742392670099e-01  4.8304314003070015e-01  4.7659989022893900e-01  4.7228300097248171e-01  4.6993106328062484e-01  4.6927341908539594e-01  4.7001523249788152e-01  4.7188451027462253e-01  4.7464573416120631e-01  4.7809362107812720e-01  4.8204122183301157e-01  4.8631294884644377e-01  4.9074765256738079e-01  4.9521113672676115e-01  4.9961288793141689e-01  5.0391946978157454e-01  5.0815756092844555e-01  5.1240267610426560e-01  5.1675414893372451e-01  5.2130161351360282e-01  5.2609162823911004e-01  5.3110401510598826e-01  5.3624516386280197e-01  5.4136024285846951e-01  5.4625973356282653e-01  5.5075074161260062e-01  5.5466236034922800e-01  5.5785713951519789e-01  5.6022556403181079e-01  5.6166507237399421e-01  5.6204853496042029e-01  5.6118998590129787e-01  5.5881925864302517e-01  5.5458268208717243e-01  5.4809186438674495e-01  5.3903907641616378e-01  5.2737279323056740e-01  5.1347407115012444e-01  4.9822102622745013e-01  4.8284427188736512e-01  4.6860097345873175e-01  4.5644061740873360e-01  4.4684822996440521e-01  4.3991564041357639e-01  4.3555240315111060e-01  4.3371067025611126e-01  4.3453602106975853e-01  4.3839861243105321e-01  4.4577769823851754e-01  4.5699022189942684e-01  4.7181895080718622e-01  4.8922321068302338e-01  5.0739666101914183e-01  5.2427739381436467e-01  5.3825356602788066e-01  5.4863801296970249e-01  5.5571979264917459e-01  5.6051643503856197e-01  5.6441501370633917e-01  5.6877642786253091e-01  5.7450175427428640e-01  5.8157515828930517e-01  5.8858363803676617e-01  5.9209224046237596e-01  6.2481446544263552e-01  6.2354266532748792e-01  6.2026293238524366e-01  6.1541687896260866e-01  6.0902531802206683e-01  6.0075196699533495e-01  5.8999899305746273e-01  5.7611788588532875e-01  5.5879571815722484e-01  5.3853996753133748e-01  5.1695683503090073e-01  4.9646070201293491e-01  4.7944876799479003e-01  4.6750570475502728e-01  4.6116332516660347e-01  4.6018054810608794e-01  4.6394886223684201e-01  4.7172474362955980e-01  4.8264746526509633e-01  4.9567016721150214e-01  5.0956434709221599e-01  5.2307232776463009e-01  5.3514331006686211e-01  5.4511167332357147e-01  5.5272501690185760e-01  5.5803853586512131e-01  5.6125621213748567e-01  5.6259069985493004e-01  5.6217481687562454e-01  5.6002869588271986e-01  5.5607733860138842e-01  5.5021391796679220e-01  5.4240160681890059e-01  5.3279234055737135e-01  5.2181738293716939e-01  5.1019194781497201e-01  4.9880212028382748e-01  4.8850772309686674e-01  4.7995191254290398e-01  4.7346289580800865e-01  4.6907035515844370e-01  4.6659697617876394e-01  4.6576624134205824e-01  4.6628546983641106e-01  4.6789052454982422e-01  4.7035778402133438e-01  4.7349688344908070e-01  4.7713798223556847e-01  4.8112370203910126e-01  4.8531070076464566e-01  4.8958049449978924e-01  4.9385477002824701e-01  4.9810807485293668e-01  5.0237100611220875e-01  5.0671968341054185e-01  5.1125154782513405e-01  5.1605217400904835e-01  5.2116148336794887e-01  5.2654917750702324e-01  5.3210734811797111e-01  5.3766301769017211e-01  5.4300642738787230e-01  5.4792518964448689e-01  5.5223267757420236e-01  5.5578178916795218e-01  5.5846058472363991e-01  5.6017154538043235e-01  5.6079991982325705e-01  5.6017935541060904e-01  5.5806628675667391e-01  5.5413916879955771e-01  5.4804260233408997e-01  5.3949282799756981e-01  5.2843860574163914e-01  5.1522467635445524e-01  5.0065736327891208e-01  4.8588325502923835e-01  4.7209922099839874e-01  4.6024328364000150e-01  4.5083673233124771e-01  4.4403433336012449e-01  4.3981082212694422e-01  4.3816808925818834e-01  4.3927499989219326e-01  4.4349008396086598e-01  4.5123908390822776e-01  4.6274485199345761e-01  4.7767845207917953e-01  4.9491946099662587e-01  5.1266390957278163e-01  5.2893667825028434e-01  5.4223579505466835e-01  5.5192763348133977e-01  5.5825761232968130e-01  5.6211622254723426e-01  5.6473337307887461e-01  5.6735512478382399e-01  5.7087959519966480e-01  5.7544714964559152e-01  5.8003842918389503e-01  5.8228217680250938e-01  6.2275512878258754e-01  6.2146462214286069e-01  6.1813431865372059e-01  6.1321972283738801e-01  6.0676300671993988e-01  5.9846222965701834e-01  5.8777486831929016e-01  5.7412951144415914e-01  5.5729136129688295e-01  5.3779831863665706e-01  5.1718883592811993e-01  4.9771479610101838e-01  4.8159237050400094e-01  4.7029219031647318e-01  4.6432120227460677e-01  4.6346505444921504e-01  4.6714801672544498e-01  4.7464633842766413e-01  4.8511507562601136e-01  4.9753987156451657e-01  5.1075314895257351e-01  5.2357665681945642e-01  5.3503156425455933e-01  5.4449367534296700e-01  5.5171526654744307e-01  5.5672876145926198e-01  5.5970250685785305e-01  5.6081242963637201e-01  5.6016035946024922e-01  5.5774471855023999e-01  5.5348062234250173e-01  5.4726580193396124e-01  5.3908411762577180e-01  5.2912212768188116e-01  5.1785065012479470e-01  5.0601442044467737e-01  4.9450498914202606e-01  4.8415955777867620e-01  4.7557952658746783e-01  4.6904792467352824e-01  4.6455893851810176e-01  4.6191505033248742e-01  4.6083400903682592e-01  4.6102821905616531e-01  4.6224587029928338e-01  4.6428057824104774e-01  4.6696288483578580e-01  4.7014664219867469e-01  4.7369971474508987e-01  4.7750367126268201e-01  4.8146233113591896e-01  4.8551505576434545e-01  4.8964835046934652e-01  4.9389921118578783e-01  4.9834573696907464e-01  5.0308429293067891e-01  5.0819700609139340e-01  5.1371741124885595e-01  5.1960424127109761e-01  5.2573232356426658e-01  5.3190473393307081e-01  5.3788297690382625e-01  5.4342513182561925e-01  5.4831907227359233e-01  5.5240034594421816e-01  5.5555030070616285e-01  5.5767628975469707e-01  5.5868014913458086e-01  5.5842378015353333e-01  5.5670314120796860e-01  5.5324526763520609e-01  5.4774557655150447e-01  5.3995902736151535e-01  5.2983964939041761e-01  5.1768444905972644e-01  5.0419836157055409e-01  4.9040361305240038e-01  4.7740090797506285e-01  4.6609981351385221e-01  4.5706440334708570e-01  4.5053584774137884e-01  4.4658237796363548e-01  4.4527724464159385e-01  4.4681898319039226e-01  4.5154023059434634e-01  4.5977737243775946e-01  4.7160970476393960e-01  4.8655416656317146e-01  5.0340211121754219e-01  5.2038999606834513e-01  5.3569568448082872e-01  5.4798240028881551e-01  5.5668279786532882e-01  5.6196014311836129e-01  5.6449982301281321e-01  5.6528352095025969e-01  5.6537954705237425e-01  5.6570400128826503e-01  5.6672463775717630e-01  5.6817646710295522e-01  5.6899340008400801e-01  6.1984069975277467e-01  6.1851982085373836e-01  6.1510677998558927e-01  6.1007827973035489e-01  6.0350881765234832e-01  5.9514651841110078e-01  5.8452598639692754e-01  5.7117924808473430e-01  5.5497266411877000e-01  5.3648064624395309e-01  5.1715190202249617e-01  4.9902860145693717e-01  4.8409179834641936e-01  4.7365787782110097e-01  4.6819148623542262e-01  4.6750565737991728e-01  4.7106684201462223e-01  4.7818353390745572e-01  4.8804175722005838e-01  4.9967902711720358e-01  5.1201144868235904e-01  5.2396218897177449e-01  5.3464045636261470e-01  5.4347064301824632e-01  5.5020840700773876e-01  5.5485654733214884e-01  5.5753889876879403e-01  5.5838662873788936e-01  5.5746521633473500e-01  5.5474965619218741e-01  5.5014745669018428e-01  5.4356680179380334e-01  5.3502017411409153e-01  5.2473561684555869e-01  5.1322530421786017e-01  5.0125748350535781e-01  4.8971614905179683e-01  4.7940031538602118e-01  4.7085690615186349e-01  4.6431704000341967e-01  4.5973860856749954e-01  4.5690700458693195e-01  4.5553895681880607e-01  4.5535660856349441e-01  4.5612424988739469e-01  4.5765545868863589e-01  4.5980358511168806e-01  4.6244763297041985e-01  4.6548208111124556e-01  4.6881489195453424e-01  4.7237376989144286e-01  4.7611725970085750e-01  4.8004508269086471e-01  4.8420165505862356e-01  4.8866817460672163e-01  4.9354175249562093e-01  4.9890419606282477e-01  5.0478727323069872e-01  5.1114427486548830e-01  5.1783781489420500e-01  5.2464986520921109e-01  5.3131252627267256e-01  5.3754996647623188e-01  5.4311751074878345e-01  5.4782545940017946e-01  5.5154160879243619e-01  5.5417387345228220e-01  5.5563977415389443e-01  5.5583235406217191e-01  5.5459376369887159e-01  5.5170960636680111e-01  5.4693826282206981e-01  5.4008555448707263e-01  5.3111962400186552e-01  5.2029122471952105e-01  5.0819449091552393e-01  4.9570650659780741e-01  4.8380469683762684e-01  4.7334624830117628e-01  4.6492560732758037e-01  4.5887086804573268e-01  4.5535124928228948e-01  4.5451651875062382e-01  4.5658955713638583e-01  4.6185771599603770e-01  4.7053886503650005e-01  4.8254453648444151e-01  4.9723950479344087e-01  5.1336744428573577e-01  5.2927173432902652e-01  5.4334316486130751e-01  5.5443678753658254e-01  5.6203929546554388e-01  5.6618878967573294e-01  5.6730208120095826e-01  5.6604193862846564e-01  5.6324757394869862e-01  5.5986725861337772e-01  5.5682179710240742e-01  5.5480157654590601e-01  5.5411911447264084e-01  6.1599369758703904e-01  6.1462691838002770e-01  6.1108839944242899e-01  6.0588613234048316e-01  5.9914167928173934e-01  5.9067226183975174e-01  5.8011209862730650e-01  5.6711885520130012e-01  5.5167421996911825e-01  5.3438655636886889e-01  5.1659252075466155e-01  5.0008845917151368e-01  4.8658127859101075e-01  4.7720136066917163e-01  4.7235284170343728e-01  4.7187231907066568e-01  4.7527577828067874e-01  4.8191865547593915e-01  4.9103717099068606e-01  5.0174171120859745e-01  5.1305127708862341e-01  5.2400458815240536e-01  5.3380653676809731e-01  5.4193192224290720e-01  5.4813753377955521e-01  5.5239224297161960e-01  5.5477095279559652e-01  5.5535719199055367e-01  5.5417994049109454e-01  5.5119389055649215e-01  5.4630498191844123e-01  5.3943914591292930e-01  5.3064282595089129e-01  5.2018475775772044e-01  5.0860847268910003e-01  4.9668731562643276e-01  4.8527646450375705e-01  4.7512016586042399e-01  4.6670383059979087e-01  4.6020909652749054e-01  4.5556587823976119e-01  4.5255250293675131e-01  4.5089347238288607e-01  4.5032685697941938e-01  4.5063636100965182e-01  4.5165627456987517e-01  4.5326149584675046e-01  4.5535354664806399e-01  4.5785014769335419e-01  4.6068210229182949e-01  4.6379767130494687e-01  4.6717168725070651e-01  4.7081469044713209e-01  4.7477670498649099e-01  4.7914111506191615e-01  4.8400643437909735e-01  4.8945729848145897e-01  4.9553013764205589e-01  5.0218259168193602e-01  5.0927710990374131e-01  5.1658659393169659e-01  5.2382301607617543e-01  5.3068105348693673e-01  5.3688247008438716e-01  5.4220693710763646e-01  5.4650102809673828e-01  5.4966548162895090e-01  5.5162743219885035e-01  5.5230767288625748e-01  5.5159419769834672e-01  5.4933379275692140e-01  5.4535311240120599e-01  5.3951661752548796e-01  5.3181651496466731e-01  5.2246811967026552e-01  5.1196264164386274e-01  5.0103093701498791e-01  4.9051292992892503e-01  4.8118855624840423e-01  4.7365542071139399e-01  4.6830641101088660e-01  4.6539588016049954e-01  4.6513624558546007e-01  4.6775809318527944e-01  4.7348451890768445e-01  4.8240307150405276e-01  4.9426979788663516e-01  5.0834628516004343e-01  5.2340523148894968e-01  5.3796854174352338e-01  5.5067460002411328e-01  5.6056313378133860e-01  5.6714370972471118e-01  5.7029149871767659e-01  5.7011516837887533e-01  5.6691568359635347e-01  5.6126473832866908e-01  5.5413535712961037e-01  5.4694997336045059e-01  5.4142977947521886e-01  5.3926625184671684e-01  6.1104364507919162e-01  6.0961143839275622e-01  6.0589451217611212e-01  6.0044704176040242e-01  5.9345859196298267e-01  5.8483962374292586e-01  5.7434725878295390e-01  5.6178073700170394e-01  5.4723837000865405e-01  5.3134662334922156e-01  5.1530356842001379e-01  5.0063272051719998e-01  4.8874397053230056e-01  4.8056256507571066e-01  4.7641829891430498e-01  4.7616663322097202e-01  4.7937928898657323e-01  4.8547394022679441e-01  4.9375705589567576e-01  5.0343118073230864e-01  5.1363197521547110e-01  5.2352023336960474e-01  5.3239754224258196e-01  5.3978767806392880e-01  5.4544687868132247e-01  5.4930909629370184e-01  5.5140051090967979e-01  5.5175904314646118e-01  5.5038161470265579e-01  5.4720949418643416e-01  5.4215520489910418e-01  5.3516900798097344e-01  5.2633198294604300e-01  5.1594410017135584e-01  5.0455956892941844e-01  4.9292946075211641e-01  4.8185510701022216e-01  4.7201175592184075e-01  4.6382282502266503e-01  4.5743061546776170e-01  4.5275194341502534e-01  4.4957256431426240e-01  4.4763599564442369e-01  4.4670332885092012e-01  4.4658083843616836e-01  4.4712337843006938e-01  4.4822465672499967e-01  4.4980407981522225e-01  4.5179675650845247e-01  4.5414990174024050e-01  4.5682588591729190e-01  4.5980975669724344e-01  4.6311737644423806e-01  4.6679956319300997e-01  4.7093799032382083e-01  4.7563020605908740e-01  4.8096394414400989e-01  4.8698461392465309e-01  4.9366368292374402e-01  5.0087806699532222e-01  5.0840963661092697e-01  5.1596836513766120e-01  5.2323386680960549e-01  5.2990231875846527e-01  5.3572357828867101e-01  5.4051795267671510e-01  5.4417052161347590e-01  5.4660858157790082e-01  5.4777207415937701e-01  5.4758807808759047e-01  5.4596007740770403e-01  5.4278122198313028e-01  5.3797659409879039e-01  5.3156993906356875e-01  5.2375507092029494e-01  5.1493796368385947e-01  5.0571665435551416e-01  4.9679282841521172e-01  4.8884990331878958e-01  4.8245555785053390e-01  4.7803003675527295e-01  4.7587821638918565e-01  4.7624590277695950e-01  4.7934881470357538e-01  4.8533539081331234e-01  4.9417619365904880e-01  5.0552016798416988e-01  5.1860568971578314e-01  5.3231838692390621e-01  5.4540893034970406e-01  5.5676333423106938e-01  5.6557253522262552e-01  5.7133183571351354e-01  5.7373040969005451e-01  5.7255827727267139e-01  5.6774410402497000e-01  5.5957264746301982e-01  5.4901952624321648e-01  5.3799450845616592e-01  5.2922498031096277e-01  5.2569728000623128e-01  6.0467768391801369e-01  6.0315809172725432e-01  5.9920529432676717e-01  5.9344156986385632e-01  5.8615374451461977e-01  5.7737529398568688e-01  5.6700824457337329e-01  5.5499863339974065e-01  5.4154475926525314e-01  5.2725834955113093e-01  5.1316617152323929e-01  5.0050010916689702e-01  4.9036690354382528e-01  4.8348315326266039e-01  4.8009935847311686e-01  4.8008782154897189e-01  4.8308187157845783e-01  4.8857531951413224e-01  4.9596224869617989e-01  5.0455187674807911e-01  5.1360383488103434e-01  5.2240122942613387e-01  5.3033929902452881e-01  5.3698853655603762e-01  5.4210498076996938e-01  5.4559043953793629e-01  5.4742689954930790e-01  5.4761272916737536e-01  5.4612040111110460e-01  5.4288642988796110e-01  5.3783783464236123e-01  5.3095287215354181e-01  5.2234225516788946e-01  5.1232045589707120e-01  5.0142527936450754e-01  4.9035519413981221e-01  4.7983404477771480e-01  4.7045823676740467e-01  4.6259372932550580e-01  4.5635756253798981e-01  4.5167070566259659e-01  4.4834197859507763e-01  4.4614559173987561e-01  4.4487288447453122e-01  4.4435592171723015e-01  4.4447006133186034e-01  4.4512518789756145e-01  4.4625401020284822e-01  4.4780306796424929e-01  4.4972921121528614e-01  4.5200183135337041e-01  4.5460917049371513e-01  4.5756564728669807e-01  4.6091638990938294e-01  4.6473520762101300e-01  4.6911323073635430e-01  4.7413752180628765e-01  4.7986204445356873e-01  4.8627698252896412e-01  4.9328532593239860e-01  5.0069601119785900e-01  5.0823912635940405e-01  5.1560111231411032e-01  5.2246975374766713e-01  5.2857463464824161e-01  5.3371114017169896e-01  5.3774338126475107e-01  5.4058937258373374e-01  5.4219701747361349e-01  5.4252123227340099e-01  5.4151194220905607e-01  5.3912055025362482e-01  5.3532832234174232e-01  5.3019271424257597e-01  5.2389728624274368e-01  5.1678203663382138e-01  5.0933220779910293e-01  5.0212052264594997e-01  4.9572360719883540e-01  4.9064935961658390e-01  4.8730394185497994e-01  4.8600008019886637e-01  4.8698173164475955e-01  4.9042954873870037e-01  4.9642103800359089e-01  5.0484614519215709e-01  5.1531585449769246e-01  5.2712873380196013e-01  5.3934682394344280e-01  5.5096603138518918e-01  5.6109199972528800e-01  5.6902264879169850e-01  5.7420811017183604e-01  5.7614702282489128e-01  5.7432753628793820e-01  5.6832704513919607e-01  5.5814850715661102e-01  5.4474651314785116e-01  5.3045967830442531e-01  5.1891393122752838e-01  5.1422302885265292e-01  5.9640981150052208e-01  5.9478313595344234e-01  5.9054719358215124e-01  5.8442242898626073e-01  5.7683028365282185e-01  5.6795951997436211e-01  5.5787165332118249e-01  5.4664706040007782e-01  5.3454513870776521e-01  5.2211324216504551e-01  5.1017072950230424e-01  4.9964923904308139e-01  4.9136338866001406e-01  4.8583396216847480e-01  4.8323802234365026e-01  4.8346722924784202e-01  4.8622224007497217e-01  4.9108370970814585e-01  4.9754539953607219e-01  5.0503118295215776e-01  5.1292566258163452e-01  5.206300323