<?xml version="1.0"?>
<VTKFile type="UnstructuredGrid"  version="0.1"  >
<UnstructuredGrid>
<Piece  NumberOfPoints="20201" NumberOfCells="40000">
<Points>
<DataArray  type="Float64"  NumberOfComponents="3"  format="ascii">0 0 0  1 0 0  2 0 0  3 0 0  4 0 0  5 0 0  6 0 0  7 0 0  8 0 0  9 0 0  10 0 0  11 0 0  12 0 0  13 0 0  14 0 0  15 0 0  16 0 0  17 0 0  18 0 0  19 0 0  20 0 0  21 0 0  22 0 0  23 0 0  24 0 0  25 0 0  26 0 0  27 0 0  28 0 0  29 0 0  30 0 0  31 0 0  32 0 0  33 0 0  34 0 0  35 0 0  36 0 0  37 0 0  38 0 0  39 0 0  40 0 0  41 0 0  42 0 0  43 0 0  44 0 0  45 0 0  46 0 0  47 0 0  48 0 0  49 0 0  50 0 0  51 0 0  52 0 0  53 0 0  54 0 0  55 0 0  56 0 0  57 0 0  58 0 0  59 0 0  60 0 0  61 0 0  62 0 0  63 0 0  64 0 0  65 0 0  66 0 0  67 0 0  68 0 0  69 0 0  70 0 0  71 0 0  72 0 0  73 0 0  74 0 0  75 0 0  76 0 0  77 0 0  78 0 0  79 0 0  80 0 0  81 0 0  82 0 0  83 0 0  84 0 0  85 0 0  86 0 0  87 0 0  88 0 0  89 0 0  90 0 0  91 0 0  92 0 0  93 0 0  94 0 0  95 0 0  96 0 0  97 0 0  98 0 0  99 0 0  100 0 0  0 1 0  1 1 0  2 1 0  3 1 0  4 1 0  5 1 0  6 1 0  7 1 0  8 1 0  9 1 0  10 1 0  11 1 0  12 1 0  13 1 0  14 1 0  15 1 0  16 1 0  17 1 0  18 1 0  19 1 0  20 1 0  21 1 0  22 1 0  23 1 0  24 1 0  25 1 0  26 1 0  27 1 0  28 1 0  29 1 0  30 1 0  31 1 0  32 1 0  33 1 0  34 1 0  35 1 0  36 1 0  37 1 0  38 1 0  39 1 0  40 1 0  41 1 0  42 1 0  43 1 0  44 1 0  45 1 0  46 1 0  47 1 0  48 1 0  49 1 0  50 1 0  51 1 0  52 1 0  53 1 0  54 1 0  55 1 0  56 1 0  57 1 0  58 1 0  59 1 0  60 1 0  61 1 0  62 1 0  63 1 0  64 1 0  65 1 0  66 1 0  67 1 0  68 1 0  69 1 0  70 1 0  71 1 0  72 1 0  73 1 0  74 1 0  75 1 0  76 1 0  77 1 0  78 1 0  79 1 0  80 1 0  81 1 0  82 1 0  83 1 0  84 1 0  85 1 0  86 1 0  87 1 0  88 1 0  89 1 0  90 1 0  91 1 0  92 1 0  93 1 0  94 1 0  95 1 0  96 1 0  97 1 0  98 1 0  99 1 0  100 1 0  0 2 0  1 2 0  2 2 0  3 2 0  4 2 0  5 2 0  6 2 0  7 2 0  8 2 0  9 2 0  10 2 0  11 2 0  12 2 0  13 2 0  14 2 0  15 2 0  16 2 0  17 2 0  18 2 0  19 2 0  20 2 0  21 2 0  22 2 0  23 2 0  24 2 0  25 2 0  26 2 0  27 2 0  28 2 0  29 2 0  30 2 0  31 2 0  32 2 0  33 2 0  34 2 0  35 2 0  36 2 0  37 2 0  38 2 0  39 2 0  40 2 0  41 2 0  42 2 0  43 2 0  44 2 0  45 2 0  46 2 0  47 2 0  48 2 0  49 2 0  50 2 0  51 2 0  52 2 0  53 2 0  54 2 0  55 2 0  56 2 0  57 2 0  58 2 0  59 2 0  60 2 0  61 2 0  62 2 0  63 2 0  64 2 0  65 2 0  66 2 0  67 2 0  68 2 0  69 2 0  70 2 0  71 2 0  72 2 0  73 2 0  74 2 0  75 2 0  76 2 0  77 2 0  78 2 0  79 2 0  80 2 0  81 2 0  82 2 0  83 2 0  84 2 0  85 2 0  86 2 0  87 2 0  88 2 0  89 2 0  90 2 0  91 2 0  92 2 0  93 2 0  94 2 0  95 2 0  96 2 0  97 2 0  98 2 0  99 2 0  100 2 0  0 3 0  1 3 0  2 3 0  3 3 0  4 3 0  5 3 0  6 3 0  7 3 0  8 3 0  9 3 0  10 3 0  11 3 0  12 3 0  13 3 0  14 3 0  15 3 0  16 3 0  17 3 0  18 3 0  19 3 0  20 3 0  21 3 0  22 3 0  23 3 0  24 3 0  25 3 0  26 3 0  27 3 0  28 3 0  29 3 0  30 3 0  31 3 0  32 3 0  33 3 0  34 3 0  35 3 0  36 3 0  37 3 0  38 3 0  39 3 0  40 3 0  41 3 0  42 3 0  43 3 0  44 3 0  45 3 0  46 3 0  47 3 0  48 3 0  49 3 0  50 3 0  51 3 0  52 3 0  53 3 0  54 3 0  55 3 0  56 3 0  57 3 0  58 3 0  59 3 0  60 3 0  61 3 0  62 3 0  63 3 0  64 3 0  65 3 0  66 3 0  67 3 0  68 3 0  69 3 0  70 3 0  71 3 0  72 3 0  73 3 0  74 3 0  75 3 0  76 3 0  77 3 0  78 3 0  79 3 0  80 3 0  81 3 0  82 3 0  83 3 0  84 3 0  85 3 0  86 3 0  87 3 0  88 3 0  89 3 0  90 3 0  91 3 0  92 3 0  93 3 0  94 3 0  95 3 0  96 3 0  97 3 0  98 3 0  99 3 0  100 3 0  0 4 0  1 4 0  2 4 0  3 4 0  4 4 0  5 4 0  6 4 0  7 4 0  8 4 0  9 4 0  10 4 0  11 4 0  12 4 0  13 4 0  14 4 0  15 4 0  16 4 0  17 4 0  18 4 0  19 4 0  20 4 0  21 4 0  22 4 0  23 4 0  24 4 0  25 4 0  26 4 0  27 4 0  28 4 0  29 4 0  30 4 0  31 4 0  32 4 0  33 4 0  34 4 0  35 4 0  36 4 0  37 4 0  38 4 0  39 4 0  40 4 0  41 4 0  42 4 0  43 4 0  44 4 0  45 4 0  46 4 0  47 4 0  48 4 0  49 4 0  50 4 0  51 4 0  52 4 0  53 4 0  54 4 0  55 4 0  56 4 0  57 4 0  58 4 0  59 4 0  60 4 0  61 4 0  62 4 0  63 4 0  64 4 0  65 4 0  66 4 0  67 4 0  68 4 0  69 4 0  70 4 0  71 4 0  72 4 0  73 4 0  74 4 0  75 4 0  76 4 0  77 4 0  78 4 0  79 4 0  80 4 0  81 4 0  82 4 0  83 4 0  84 4 0  85 4 0  86 4 0  87 4 0  88 4 0  89 4 0  90 4 0  91 4 0  92 4 0  93 4 0  94 4 0  95 4 0  96 4 0  97 4 0  98 4 0  99 4 0  100 4 0  0 5 0  1 5 0  2 5 0  3 5 0  4 5 0  5 5 0  6 5 0  7 5 0  8 5 0  9 5 0  10 5 0  11 5 0  12 5 0  13 5 0  14 5 0  15 5 0  16 5 0  17 5 0  18 5 0  19 5 0  20 5 0  21 5 0  22 5 0  23 5 0  24 5 0  25 5 0  26 5 0  27 5 0  28 5 0  29 5 0  30 5 0  31 5 0  32 5 0  33 5 0  34 5 0  35 5 0  36 5 0  37 5 0  38 5 0  39 5 0  40 5 0  41 5 0  42 5 0  43 5 0  44 5 0  45 5 0  46 5 0  47 5 0  48 5 0  49 5 0  50 5 0  51 5 0  52 5 0  53 5 0  54 5 0  55 5 0  56 5 0  57 5 0  58 5 0  59 5 0  60 5 0  61 5 0  62 5 0  63 5 0  64 5 0  65 5 0  66 5 0  67 5 0  68 5 0  69 5 0  70 5 0  71 5 0  72 5 0  73 5 0  74 5 0  75 5 0  76 5 0  77 5 0  78 5 0  79 5 0  80 5 0  81 5 0  82 5 0  83 5 0  84 5 0  85 5 0  86 5 0  87 5 0  88 5 0  89 5 0  90 5 0  91 5 0  92 5 0  93 5 0  94 5 0  95 5 0  96 5 0  97 5 0  98 5 0  99 5 0  100 5 0  0 6 0  1 6 0  2 6 0  3 6 0  4 6 0  5 6 0  6 6 0  7 6 0  8 6 0  9 6 0  10 6 0  11 6 0  12 6 0  13 6 0  14 6 0  15 6 0  16 6 0  17 6 0  18 6 0  19 6 0  20 6 0  21 6 0  22 6 0  23 6 0  24 6 0  25 6 0  26 6 0  27 6 0  28 6 0  29 6 0  30 6 0  31 6 0  32 6 0  33 6 0  34 6 0  35 6 0  36 6 0  37 6 0  38 6 0  39 6 0  40 6 0  41 6 0  42 6 0  43 6 0  44 6 0  45 6 0  46 6 0  47 6 0  48 6 0  49 6 0  50 6 0  51 6 0  52 6 0  53 6 0  54 6 0  55 6 0  56 6 0  57 6 0  58 6 0  59 6 0  60 6 0  61 6 0  62 6 0  63 6 0  64 6 0  65 6 0  66 6 0  67 6 0  68 6 0  69 6 0  70 6 0  71 6 0  72 6 0  73 6 0  74 6 0  75 6 0  76 6 0  77 6 0  78 6 0  79 6 0  80 6 0  81 6 0  82 6 0  83 6 0  84 6 0  85 6 0  86 6 0  87 6 0  88 6 0  89 6 0  90 6 0  91 6 0  92 6 0  93 6 0  94 6 0  95 6 0  96 6 0  97 6 0  98 6 0  99 6 0  100 6 0  0 7 0  1 7 0  2 7 0  3 7 0  4 7 0  5 7 0  6 7 0  7 7 0  8 7 0  9 7 0  10 7 0  11 7 0  12 7 0  13 7 0  14 7 0  15 7 0  16 7 0  17 7 0  18 7 0  19 7 0  20 7 0  21 7 0  22 7 0  23 7 0  24 7 0  25 7 0  26 7 0  27 7 0  28 7 0  29 7 0  30 7 0  31 7 0  32 7 0  33 7 0  34 7 0  35 7 0  36 7 0  37 7 0  38 7 0  39 7 0  40 7 0  41 7 0  42 7 0  43 7 0  44 7 0  45 7 0  46 7 0  47 7 0  48 7 0  49 7 0  50 7 0  51 7 0  52 7 0  53 7 0  54 7 0  55 7 0  56 7 0  57 7 0  58 7 0  59 7 0  60 7 0  61 7 0  62 7 0  63 7 0  64 7 0  65 7 0  66 7 0  67 7 0  68 7 0  69 7 0  70 7 0  71 7 0  72 7 0  73 7 0  74 7 0  75 7 0  76 7 0  77 7 0  78 7 0  79 7 0  80 7 0  81 7 0  82 7 0  83 7 0  84 7 0  85 7 0  86 7 0  87 7 0  88 7 0  89 7 0  90 7 0  91 7 0  92 7 0  93 7 0  94 7 0  95 7 0  96 7 0  97 7 0  98 7 0  99 7 0  100 7 0  0 8 0  1 8 0  2 8 0  3 8 0  4 8 0  5 8 0  6 8 0  7 8 0  8 8 0  9 8 0  10 8 0  11 8 0  12 8 0  13 8 0  14 8 0  15 8 0  16 8 0  17 8 0  18 8 0  19 8 0  20 8 0  21 8 0  22 8 0  23 8 0  24 8 0  25 8 0  26 8 0  27 8 0  28 8 0  29 8 0  30 8 0  31 8 0  32 8 0  33 8 0  34 8 0  35 8 0  36 8 0  37 8 0  38 8 0  39 8 0  40 8 0  41 8 0  42 8 0  43 8 0  44 8 0  45 8 0  46 8 0  47 8 0  48 8 0  49 8 0  50 8 0  51 8 0  52 8 0  53 8 0  54 8 0  55 8 0  56 8 0  57 8 0  58 8 0  59 8 0  60 8 0  61 8 0  62 8 0  63 8 0  64 8 0  65 8 0  66 8 0  67 8 0  68 8 0  69 8 0  70 8 0  71 8 0  72 8 0  73 8 0  74 8 0  75 8 0  76 8 0  77 8 0  78 8 0  79 8 0  80 8 0  81 8 0  82 8 0  83 8 0  84 8 0  85 8 0  86 8 0  87 8 0  88 8 0  89 8 0  90 8 0  91 8 0  92 8 0  93 8 0  94 8 0  95 8 0  96 8 0  97 8 0  98 8 0  99 8 0  100 8 0  0 9 0  1 9 0  2 9 0  3 9 0  4 9 0  5 9 0  6 9 0  7 9 0  8 9 0  9 9 0  10 9 0  11 9 0  12 9 0  13 9 0  14 9 0  15 9 0  16 9 0  17 9 0  18 9 0  19 9 0  20 9 0  21 9 0  22 9 0  23 9 0  24 9 0  25 9 0  26 9 0  27 9 0  28 9 0  29 9 0  30 9 0  31 9 0  32 9 0  33 9 0  34 9 0  35 9 0  36 9 0  37 9 0  38 9 0  39 9 0  40 9 0  41 9 0  42 9 0  43 9 0  44 9 0  45 9 0  46 9 0  47 9 0  48 9 0  49 9 0  50 9 0  51 9 0  52 9 0  53 9 0  54 9 0  55 9 0  56 9 0  57 9 0  58 9 0  59 9 0  60 9 0  61 9 0  62 9 0  63 9 0  64 9 0  65 9 0  66 9 0  67 9 0  68 9 0  69 9 0  70 9 0  71 9 0  72 9 0  73 9 0  74 9 0  75 9 0  76 9 0  77 9 0  78 9 0  79 9 0  80 9 0  81 9 0  82 9 0  83 9 0  84 9 0  85 9 0  86 9 0  87 9 0  88 9 0  89 9 0  90 9 0  91 9 0  92 9 0  93 9 0  94 9 0  95 9 0  96 9 0  97 9 0  98 9 0  99 9 0  100 9 0  0 10 0  1 10 0  2 10 0  3 10 0  4 10 0  5 10 0  6 10 0  7 10 0  8 10 0  9 10 0  10 10 0  11 10 0  12 10 0  13 10 0  14 10 0  15 10 0  16 10 0  17 10 0  18 10 0  19 10 0  20 10 0  21 10 0  22 10 0  23 10 0  24 10 0  25 10 0  26 10 0  27 10 0  28 10 0  29 10 0  30 10 0  31 10 0  32 10 0  33 10 0  34 10 0  35 10 0  36 10 0  37 10 0  38 10 0  39 10 0  40 10 0  41 10 0  42 10 0  43 10 0  44 10 0  45 10 0  46 10 0  47 10 0  48 10 0  49 10 0  50 10 0  51 10 0  52 10 0  53 10 0  54 10 0  55 10 0  56 10 0  57 10 0  58 10 0  59 10 0  60 10 0  61 10 0  62 10 0  63 10 0  64 10 0  65 10 0  66 10 0  67 10 0  68 10 0  69 10 0  70 10 0  71 10 0  72 10 0  73 10 0  74 10 0  75 10 0  76 10 0  77 10 0  78 10 0  79 10 0  80 10 0  81 10 0  82 10 0  83 10 0  84 10 0  85 10 0  86 10 0  87 10 0  88 10 0  89 10 0  90 10 0  91 10 0  92 10 0  93 10 0  94 10 0  95 10 0  96 10 0  97 10 0  98 10 0  99 10 0  100 10 0  0 11 0  1 11 0  2 11 0  3 11 0  4 11 0  5 11 0  6 11 0  7 11 0  8 11 0  9 11 0  10 11 0  11 11 0  12 11 0  13 11 0  14 11 0  15 11 0  16 11 0  17 11 0  18 11 0  19 11 0  20 11 0  21 11 0  22 11 0  23 11 0  24 11 0  25 11 0  26 11 0  27 11 0  28 11 0  29 11 0  30 11 0  31 11 0  32 11 0  33 11 0  34 11 0  35 11 0  36 11 0  37 11 0  38 11 0  39 11 0  40 11 0  41 11 0  42 11 0  43 11 0  44 11 0  45 11 0  46 11 0  47 11 0  48 11 0  49 11 0  50 11 0  51 11 0  52 11 0  53 11 0  54 11 0  55 11 0  56 11 0  57 11 0  58 11 0  59 11 0  60 11 0  61 11 0  62 11 0  63 11 0  64 11 0  65 11 0  66 11 0  67 11 0  68 11 0  69 11 0  70 11 0  71 11 0  72 11 0  73 11 0  74 11 0  75 11 0  76 11 0  77 11 0  78 11 0  79 11 0  80 11 0  81 11 0  82 11 0  83 11 0  84 11 0  85 11 0  86 11 0  87 11 0  88 11 0  89 11 0  90 11 0  91 11 0  92 11 0  93 11 0  94 11 0  95 11 0  96 11 0  97 11 0  98 11 0  99 11 0
[...]
<PointData  Scalars="f_3357-0"> 
<DataArray  type="Float64"  Name="f_3357-0"  format="ascii">6.2017669234289918e-01  6.1855413840524742e-01  6.1395543106847517e-01  6.0656264002315152e-01  5.9666857773127380e-01  5.8474436987285605e-01  5.7136679705116133e-01  5.5717537041324772e-01  5.4284072830138785e-01  5.2902747104732695e-01  5.1635505154810291e-01  5.0536271567905300e-01  4.9648169966737049e-01  4.9001591682012380e-01  4.8613116663227646e-01  4.8485219869027768e-01  4.8606678563600758e-01  4.8953613903467985e-01  4.9491123273785265e-01  5.0175462270600668e-01  5.0956704946168618e-01  5.1781752443940698e-01  5.2597494175050929e-01  5.3353881552605420e-01  5.4006674781032971e-01  5.4519670854400359e-01  5.4866296961425565e-01  5.5030530332829819e-01  5.5007162584985358e-01  5.4801458089493227e-01  5.4428268746363628e-01  5.3910673991051172e-01  5.3278225562342962e-01  5.2564896274872064e-01  5.1806858173645243e-01  5.1040239268018706e-01  5.0299018696665443e-01  4.9613210140668440e-01  4.9007452393387346e-01  4.8500081331414524e-01  4.8102709545352845e-01  4.7820297279024221e-01  4.7651665136816834e-01  4.7590374954933129e-01  4.7625887975684883e-01  4.7744897088617072e-01  4.7932722144657836e-01  4.8174655503505320e-01  4.8457150848662012e-01  4.8768762962987461e-01  4.9100769108614262e-01  4.9447431811986053e-01  4.9805895141929601e-01  5.0175738741149711e-01  5.0558243125029312e-01  5.0955443963358371e-01  5.1369070708366782e-01  5.1799475041595655e-01  5.2244656639861009e-01  5.2699487558602187e-01  5.3155222298806015e-01  5.3599358901975347e-01  5.4015888219599706e-01  5.4385935619006198e-01  5.4688764675793855e-01  5.4903079703653423e-01  5.5008537354328002e-01  5.4987360022016984e-01  5.4825936257226238e-01  5.4516294169016710e-01  5.4057339559264783e-01  5.3455758141331156e-01  5.2726489684470601e-01  5.1892693821162017e-01  5.0985148285033743e-01  5.0041056861682132e-01  4.9102298617426454e-01  4.8213215593100045e-01  4.7418097333596193e-01  4.6758558364934638e-01  4.6271007205972825e-01  4.5984375441600517e-01  4.5918228565787012e-01  4.6081336536922324e-01  4.6470755415448056e-01  4.7071465559593501e-01  4.7856619398809908e-01  4.8788457329684848e-01  4.9819935232120416e-01  5.0897058974610188e-01  5.1961838303886565e-01  5.2955649554486572e-01  5.3822646932008178e-01  5.4512924956849240e-01  5.4985910198530097e-01  5.5214739605828655e-01  5.5186151543979056e-01  5.4880872049985885e-01  5.4265894830765937e-01  5.3476179764719367e-01  5.3092408786485401e-01  6.1923441343846319e-01  6.1767584347273652e-01  6.1321403120604301e-01  6.0598162575549563e-01  5.9626053167914417e-01  5.8451943956060926e-01  5.7133052029042564e-01  5.5732701887074443e-01  5.4317293121739496e-01  5.2952646246724511e-01  5.1700134478544357e-01  5.0613211467896957e-01  4.9734648832096456e-01  4.9094606220225023e-01  4.8709543378708287e-01  4.8581914747230659e-01  4.8700566965830017e-01  4.9041774262881954e-01  4.9570866742352127e-01  5.0244407061819019e-01  5.1012840271992677e-01  5.1823484398408659e-01  5.2623666073233322e-01  5.3363764411939940e-01  5.3999928748205339e-01  5.4496283476314700e-01  5.4826507522256085e-01  5.4974750307065456e-01  5.4935900945552152e-01  5.4715257674873607e-01  5.4327657037579857e-01  5.3796129105489243e-01  5.3150156390098202e-01  5.2423634637093008e-01  5.1652660695822483e-01  5.0873297173569731e-01  5.0119474574422807e-01  4.9421181449155538e-01  4.8803061635817857e-01  4.8283492319137766e-01  4.7874168115604931e-01  4.7580173605626730e-01  4.7400493779482977e-01  4.7328888356758275e-01  4.7355039402808091e-01  4.7465869997991006e-01  4.7646924491652454e-01  4.7883699268994256e-01  4.8162818737872748e-01  4.8472965513608368e-01  4.8805496174452384e-01  4.9154702544545847e-01  4.9517710281411748e-01  4.9894038409264002e-01  5.0284872529103619e-01  5.0692128571947803e-01  5.1117401600812840e-01  5.1560904313772038e-01  5.2020502020202530e-01  5.2490944811960061e-01  5.2963383610030634e-01  5.3425235226699708e-01  5.3860433498073801e-01  5.4250070665914840e-01  5.4573398395200856e-01  5.4809125012695792e-01  5.4936918910118626e-01  5.4939010701262103e-01  5.4801779553365293e-01  5.4517210459033649e-01  5.4084115709805469e-01  5.3509022218679980e-01  5.2806635452929085e-01  5.1999802791663630e-01  5.1118919464524348e-01  5.0200754970519346e-01  4.9286729517082001e-01  4.8420732975992703e-01  4.7646638571811223e-01  4.7005701892614160e-01  4.6534040913370478e-01  4.6260366152807603e-01  4.6204086188792282e-01  4.6373871428095670e-01  4.6766732272936151e-01  4.7367660453745364e-01  4.8149887393484847e-01  4.9075815845980131e-01  5.0098662728808885e-01  5.1164800786656373e-01  5.2216704381499934e-01  5.3196286004295756e-01  5.4048266108734588e-01  5.4723283332417694e-01  5.5181229948109722e-01  5.5395620034275672e-01  5.5353632264387786e-01  5.5036458201779026e-01  5.4408870226565287e-01  5.3591379865126210e-01  5.3163705625347568e-01  6.1636680741683947e-01  6.1494304288265778e-01  6.1078171699728545e-01  6.0391408679678227e-01  5.9459828887127009e-01  5.8329677227547638e-01  5.7056950460705891e-01  5.5703323459275056e-01  5.4333442270063848e-01  5.3011421352889210e-01  5.1797081873326345e-01  5.0742571932634084e-01  4.9889663304991477e-01  4.9267841985152483e-01  4.8893213049749595e-01  4.8768175115047091e-01  4.8881795310734549e-01  4.9210823555619954e-01  4.9721298835948990e-01  5.0370696861880360e-01  5.1110537356080776e-01  5.1889315309532591e-01  5.2655563123874838e-01  5.3360815343368606e-01  5.3962253167966545e-01  5.4424852423645387e-01  5.4722928509144697e-01  5.4841040881845182e-01  5.4774270520939294e-01  5.4527912206518514e-01  5.4116635942270874e-01  5.3563179547858297e-01  5.2896646998361585e-01  5.2150508681514252e-01  5.1360427470620718e-01  5.0562059418808403e-01  4.9788988930402683e-01  4.9070947896881956e-01  4.8432436529350348e-01  4.7891818026136485e-01  4.7460910680422291e-01  4.7145058560037323e-01  4.6943629592153852e-01  4.6850867325532219e-01  4.6857007233392017e-01  4.6949557883106463e-01  4.7114640984084860e-01  4.7338283181391194e-01  4.7607558109671450e-01  4.7911490782618549e-01  4.8241657676286276e-01  4.8592443204441449e-01  4.8960943973235410e-01  4.9346543187319186e-01  4.9750206059630725e-01  5.0173570822160285e-01  5.0617927353280268e-01  5.1083185521591001e-01  5.1566937582797745e-01  5.2063713225481945e-01  5.2564512295386490e-01  5.3056679250380168e-01  5.3524155861801626e-01  5.3948116250364209e-01  5.4307953866512704e-01  5.4582557435153933e-01  5.4751786432373295e-01  5.4798039577644919e-01  5.4707803104058339e-01  5.4473067615867587e-01  5.4092509822079660e-01  5.3572345023616741e-01  5.2926766507757583e-01  5.2177900637986707e-01  5.1355225994964893e-01  5.0494436866850467e-01  4.9635778253974977e-01  4.8821937045942404e-01  4.8095629883481600e-01  4.7497066403757493e-01  4.7061475570028538e-01  4.6816862523514263e-01  4.6782125488097309e-01  4.6965623449603983e-01  4.7364258881033200e-01  4.7963129839603447e-01  4.8735806136264831e-01  4.9645280695211252e-01  5.0645623244935301e-01  5.1684310410736933e-01  5.2705126911356193e-01  5.3651423425388001e-01  5.4469383188936582e-01  5.5111012641255308e-01  5.5537349390929802e-01  5.5722807189935941e-01  5.5655579635854435e-01  5.5317984419855781e-01  5.4670881800532956e-01  5.3816560440431227e-01  5.3348305334114254e-01  6.1157948873807366e-01  6.1030942163247570e-01  6.0650448629183373e-01  6.0009122515874647e-01  5.9130154944388147e-01  5.8058801070070676e-01  5.6849198412312352e-01  5.5560582377396728e-01  5.4255006859614852e-01  5.2994039024119122e-01  5.1835146152319866e-01  5.0828457024373552e-01  5.0014162959619946e-01  4.9420662783087360e-01  4.9063480760272160e-01  4.8944927650975983e-01  4.9054447460301220e-01  4.9369593759590225e-01  4.9857587111719870e-01  5.0477398251475769e-01  5.1182271036767402e-01  5.1922549750071001e-01  5.2648624545019107e-01  5.3313779190947785e-01  5.3876732371595670e-01  5.4303707199703399e-01  5.4569927514092109e-01  5.4660502730396687e-01  5.4570710299996650e-01  5.4305712333968359e-01  5.3879756368389420e-01  5.3314919410111594e-01  5.2639467893685310e-01  5.1885927663628562e-01  5.1088984735259202e-01  5.0283361011239580e-01  4.9501819123347790e-01  4.8773440209542829e-01  4.8122287866504093e-01  4.7566527841672473e-01  4.7118026466345575e-01  4.6782409887293142e-01  4.6559534833455846e-01  4.6444299723574001e-01  4.6427710066267497e-01  4.6498102191028590e-01  4.6642423660104115e-01  4.6847467978439217e-01  4.7100966826036567e-01  4.7392455986601928e-01  4.7713851304178223e-01  4.8059696901411553e-01  4.8427077079297770e-01  4.8815212932452345e-01  4.9224792059690609e-01  4.9657102626695698e-01  5.0113059857041731e-01  5.0592222793167640e-01  5.1091901388408789e-01  5.1606448553786555e-01  5.2126818838444922e-01  5.2640455354333504e-01  5.3131540153435519e-01  5.3581612095506570e-01  5.3970523000473913e-01  5.4277671328695964e-01  5.4483426875164020e-01  5.4570643178813993e-01  5.4526147625325960e-01  5.4342101197398140e-01  5.4017127450175029e-01  5.3557120439635286e-01  5.2975652547880225e-01  5.2293916692218256e-01  5.1540157051437785e-01  5.0748572692978489e-01  4.9957721388933263e-01  4.9208502804241672e-01  4.8541850814911852e-01  4.7996300368834899e-01  4.7605604901338816e-01  4.7396565088312292e-01  4.7387197909400691e-01  4.7585340734047510e-01  4.7987760117254608e-01  4.8579823143995016e-01  4.9335785158324347e-01  5.0219738878898112e-01  5.1187242060983640e-01  5.2187587890534570e-01  5.3166608890263989e-01  5.4069807139963411e-01  5.4845479130720420e-01  5.5447558724803014e-01  5.5838669469829338e-01  5.5994416542869596e-01  5.5904175907213927e-01  5.5551675420356672e-01  5.4895529877467419e-01  5.4025613146511908e-01  5.3537738304553739e-01  6.0497906814110403e-01  6.0386980034389393e-01  6.0045279218208181e-01  5.9455875558581950e-01  5.8639272435534140e-01  5.7639240795589886e-01  5.6507400302761623e-01  5.5299808269123529e-01  5.4075149508266995e-01  5.2891663932201405e-01  5.1803723696654791e-01  5.0858780553374805e-01  5.0094911244964002e-01  4.9539047166109312e-01  4.9205923793798911e-01  4.9097734642951663e-01  4.9204444736271974e-01  4.9504713639333592e-01  4.9967379552153790e-01  5.0553445763528371e-01  5.1218481345643574e-01  5.1915303925088707e-01  5.2596768744852407e-01  5.3218463879648026e-01  5.3741119125378800e-01  5.4132575050987053e-01  5.4369215577544594e-01  5.4436824325145960e-01  5.4330868774229379e-01  5.4056243389158398e-01  5.3626517761765780e-01  5.3062746749887368e-01  5.2391913765114551e-01  5.1645098836356240e-01  5.0855487252933385e-01  5.0056355160257437e-01  4.9279176646545508e-01  4.8551986742426062e-01  4.7898106560350212e-01  4.7335296710926167e-01  4.6875362075117544e-01  4.6524192565624650e-01  4.6282194485384964e-01  4.6145045631416409e-01  4.6104692631701061e-01  4.6150499374440401e-01  4.6270450127908408e-01  4.6452310581322009e-01  4.6684655650325579e-01  4.6957685270910021e-01  4.7263768384942012e-01  4.7597679582903457e-01  4.7956520204253572e-01  4.8339343494730869e-01  4.8746529166810881e-01  4.9178974305930362e-01  4.9637183470635965e-01  5.0120350076955567e-01  5.0625523260174476e-01  5.1146949272838937e-01  5.1675664268527721e-01  5.2199396428435174e-01  5.2702810579364079e-01  5.3168099193469132e-01  5.3575892426237415e-01  5.3906430077291756e-01  5.4140913810762559e-01  5.4262941632298578e-01  5.4259919650900101e-01  5.4124347534950701e-01  5.3854881231349916e-01  5.3457086730018222e-01  5.2943810560086746e-01  5.2335107202619502e-01  5.1657683644894625e-01  5.0943850313094474e-01  5.0230006908573011e-01  4.9554737885819783e-01  4.8956636850538782e-01  4.8472010933384324e-01  4.8132626922925553e-01  4.7963649766756322e-01  4.7981898183238630e-01  4.8194512925112842e-01  4.8598110327271166e-01  4.9178480527762791e-01  4.9910881756728293e-01  5.0760968741815737e-01  5.1686363141108249e-01  5.2638823339248220e-01  5.3566905654658381e-01  5.4418923206412073e-01  5.5145892820954945e-01  5.5704204392654022e-01  5.6058492373573765e-01  5.6185815548906948e-01  5.6076744469290296e-01  5.5716467883733978e-01  5.5062930076753180e-01  5.4195689611144093e-01  5.3701641008885093e-01  5.9672270463230126e-01  5.9577896828395249e-01  5.9277715730632818e-01  5.8746298897300642e-01  5.8001307984561257e-01  5.7084447453195342e-01  5.6044161291367434e-01  5.4932629270839561e-01  5.3804436002889677e-01  5.2713764631209714e-01  5.1711206219237382e-01  5.0840932683297546e-01  5.0138419355550845e-01  4.9628783429940804e-01  4.9325779330418379e-01  4.9231450291780426e-01  4.9336404135672529e-01  4.9620670291729868e-01  5.0055090338441544e-01  5.0603180986588991e-01  5.1223380645571870e-01  5.1871552682988764e-01  5.2503582517415937e-01  5.3077886730318991e-01  5.3557660268935148e-01  5.3912721698476840e-01  5.4120865552165653e-01  5.4168680700513683e-01  5.4051833547112549e-01  5.3774841387460748e-01  5.3350377678051109e-01  5.2798163644401730e-01  5.2143515355841730e-01  5.1415634440527080e-01  5.0645751750098134e-01  4.9865250463392180e-01  4.9103901200130845e-01  4.8388332002682466e-01  4.7740830780487598e-01  4.7178542094662057e-01  4.6713081402482759e-01  4.6350554564561741e-01  4.6091942076782660e-01  4.5933786669751420e-01  4.5869108477561793e-01  4.5888462598719215e-01  4.5981048997833596e-01  4.6135784665022228e-01  4.6342253534232453e-01  4.6591461394391681e-01  4.6876340669730304e-01  4.7191972312219727e-01  4.7535517190462540e-01  4.7905874955085442e-01  4.8303112128896758e-01  4.8727721164018262e-01  4.9179786967936145e-01  4.9658145987523628e-01  5.0159624888716892e-01  5.0678441084949910e-01  5.1205836021972762e-01  5.1729994628150489e-01  5.2236281445727861e-01  5.2707797036910908e-01  5.3126229532655145e-01  5.3472948701491851e-01  5.3730266990225906e-01  5.3882776335254989e-01  5.3918662365901737e-01  5.3830898277545858e-01  5.3618227132480900e-01  5.3285851404631002e-01  5.2845760987206547e-01  5.2316646147307067e-01  5.1723362099169945e-01  5.1095939312769256e-01  5.0468168971516536e-01  4.9875833159583233e-01  4.9354687533036590e-01  4.8938331804797131e-01  4.8656113922329192e-01  4.8531206488470252e-01  4.8578974035703487e-01  4.8805725783831505e-01  4.9207927936037305e-01  4.9771935088245617e-01  5.0474288492065311e-01  5.1282611436972880e-01  5.2157100442500870e-01  5.3052564051123530e-01  5.3920905089676296e-01  5.4713869568463935e-01  5.5385779270118640e-01  5.5895998408793757e-01  5.6211596655468743e-01  5.6311352303809237e-01  5.6187037356307745e-01  5.5825277067291479e-01  5.5184260127668672e-01  5.4333970643301521e-01  5.3843596791291937e-01  5.8699687731184202e-01  5.8621957118031731e-01  5.8365149633278668e-01  5.7896653799095388e-01  5.7231136902776425e-01  5.6407649833600959e-01  5.5470858424110236e-01  5.4468449541079544e-01  5.3450268673325341e-01  5.2465806956107608e-01  5.1561277948256445e-01  5.0777047040473844e-01  5.0145557339102598e-01  4.9689798108253636e-01  4.9422360804789267e-01  4.9345095055724725e-01  4.9449344941826268e-01  4.9716729896598499e-01  5.0120424201029845e-01  5.0626873039233944e-01  5.1197857316509310e-01  5.1792787603003920e-01  5.2371079191650760e-01  5.2894446489222602e-01  5.3328962838900029e-01  5.3646760481411582e-01  5.3827286440700706e-01  5.3858072663203160e-01  5.3735014297962302e-01  5.3462175566229109e-01  5.3051160259682151e-01  5.2520098093541845e-01  5.1892313115998379e-01  5.1194757745763975e-01  5.0456313882328596e-01  4.9706076181348069e-01  4.8971736557875678e-01  4.8278179772268481e-01  4.7646377856063304e-01  4.7092640157100285e-01  4.6628241794283359e-01  4.6259421624038877e-01  4.5987714604556346e-01  4.5810563575842655e-01  4.5722141413237744e-01  4.5714305417982215e-01  4.5777601276587671e-01  4.5902234142388154e-01  4.6078929849268285e-01  4.6299620238051831e-01  4.6557902735433915e-01  4.6849244601450868e-01  4.7170924961924376e-01  4.7521730850336052e-01  4.7901444984387204e-01  4.8310181138824981e-01  4.8747636398450966e-01  4.9212337394871086e-01  4.9700959394084732e-01  5.0207792713505506e-01  5.0724420583423602e-01  5.1239656649645948e-01  5.1739769586203788e-01  5.2208998009874641e-01  5.2630333018216069e-01  5.2986520822340899e-01  5.3261216970591596e-01  5.3440208944657508e-01  5.3512616664093315e-01  5.3471980382704831e-01  5.3317151162630161e-01  5.3052908819754074e-01  5.2690244851175416e-01  5.2246263512269397e-01  5.1743674105823145e-01  5.1209873000973305e-01  5.0675644926303953e-01  5.0173547145531650e-01  4.9736072029004674e-01  4.9393706959257139e-01  4.9173020705021975e-01  4.9094901525371643e-01  4.9173057828649969e-01  4.9412873196286888e-01  4.9810689342446918e-01  5.0353575122613026e-01  5.1019624561162447e-01  5.1778806119547838e-01  5.2594353538146965e-01  5.3424646427328371e-01  5.4225482746168630e-01  5.4952585691340516e-01  5.5564091749528055e-01  5.6022790224686747e-01  5.6298554421861846e-01  5.6372114127093764e-01  5.6236461566375262e-01  5.5879665205221463e-01  5.5260890754708170e-01  5.4440822529024102e-01  5.3962874499222158e-01  5.7601910229493958e-01  5.7540434265460461e-01  5.7327703867453483e-01  5.6925524798390548e-01  5.6345475591015881e-01  5.5623397220197635e-01  5.4799653272142856e-01  5.3916927263609982e-01  5.3019799901161890e-01  5.2152548740476734e-01  5.1356518816473229e-01  5.0667830146737036e-01  5.0115526674125488e-01  4.9720193471243401e-01  4.9493088851155109e-01  4.9435813888761898e-01  4.9540510288756268e-01  4.9790557860585444e-01  5.0161728318666410e-01  5.0623734365953810e-01  5.1142089627720611e-01  5.1680169120122188e-01  5.2201338523591156e-01  5.2671011299907233e-01  5.3058500275650344e-01  5.3338553781515863e-01  5.3492499807291916e-01  5.3508956975053934e-01  5.3384102159975677e-01  5.3121508715649768e-01  5.2731587476110242e-01  5.2230677902631240e-01  5.1639851637820955e-01  5.0983506242846555e-01  5.0287841490648144e-01  4.9579320803524862e-01  4.8883222401766591e-01  4.8222376097810343e-01  4.7616162777923288e-01  4.7079827472813579e-01  4.6624127939562032e-01  4.6255313000052845e-01  4.5975401224460116e-01  4.5782712000353309e-01  4.5672587570459267e-01  4.5638235872730570e-01  4.5671619760995247e-01  4.5764318527596892e-01  4.5908292834572778e-01  4.6096494241473362e-01  4.6323275084696708e-01  4.6584572536853563e-01  4.6877860798416576e-01  4.7201885827214041e-01  4.7556216058167050e-01  4.7940658663139846e-01  4.8354602836364813e-01  4.8796358545273733e-01  4.9262560729015664e-01  4.9747704963053807e-01  5.0243871316939137e-01  5.0740678938993811e-01  5.1225495526613496e-01  5.1683904424435168e-01  5.2100409313374962e-01  5.2459334490157206e-01  5.2745859962656416e-01  5.2947117043489200e-01  5.3053262990121031e-01  5.3058452558093161e-01  5.2961629195671955e-01  5.2767067734181028e-01  5.2484612862690050e-01  5.2129573212361391e-01  5.1722249966606770e-01  5.1287102041576449e-01  5.0851576632204487e-01  5.0444662220217606e-01  5.0095247247707397e-01  4.9830387175732344e-01  4.9673592232702357e-01  4.9643247013082914e-01  4.9751263277023405e-01  5.0002052624147708e-01  5.0391889694463288e-01  5.0908720592322021e-01  5.1532453812499801e-01  5.2235748356632539e-01  5.2985282986293181e-01  5.3743454036435889e-01  5.4470412859799922e-01  5.5126306413284842e-01  5.5673498777804908e-01  5.6078565807405190e-01  5.6314475930318664e-01  5.6364086964423399e-01  5.6221617174258254e-01  5.5876609719285752e-01  5.5289875987203962e-01  5.4512862468132828e-01  5.4055553276611623e-01  5.6403656026772653e-01  5.6357580047228306e-01  5.6188475218925404e-01  5.5854421667866960e-01  5.5363879068463784e-01  5.4748964425783209e-01  5.4045303252502164e-01  5.3290178172554059e-01  5.2522498618721569e-01  5.1780924923157134e-01  5.1101551771300580e-01  5.0515907256614523e-01  5.0049338365228124e-01  4.9719792342938873e-01  4.9537039516875253e-01  4.9502366621970739e-01  4.9608739636765981e-01  4.9841413603871082e-01  5.0178949856044486e-01  5.0594582709157443e-01  5.1057856966845672e-01  5.153643712