<?xml version="1.0"?>
<VTKFile type="UnstructuredGrid"  version="0.1"  >
<UnstructuredGrid>
<Piece  NumberOfPoints="20201" NumberOfCells="40000">
<Points>
<DataArray  type="Float64"  NumberOfComponents="3"  format="ascii">0 0 0  1 0 0  2 0 0  3 0 0  4 0 0  5 0 0  6 0 0  7 0 0  8 0 0  9 0 0  10 0 0  11 0 0  12 0 0  13 0 0  14 0 0  15 0 0  16 0 0  17 0 0  18 0 0  19 0 0  20 0 0  21 0 0  22 0 0  23 0 0  24 0 0  25 0 0  26 0 0  27 0 0  28 0 0  29 0 0  30 0 0  31 0 0  32 0 0  33 0 0  34 0 0  35 0 0  36 0 0  37 0 0  38 0 0  39 0 0  40 0 0  41 0 0  42 0 0  43 0 0  44 0 0  45 0 0  46 0 0  47 0 0  48 0 0  49 0 0  50 0 0  51 0 0  52 0 0  53 0 0  54 0 0  55 0 0  56 0 0  57 0 0  58 0 0  59 0 0  60 0 0  61 0 0  62 0 0  63 0 0  64 0 0  65 0 0  66 0 0  67 0 0  68 0 0  69 0 0  70 0 0  71 0 0  72 0 0  73 0 0  74 0 0  75 0 0  76 0 0  77 0 0  78 0 0  79 0 0  80 0 0  81 0 0  82 0 0  83 0 0  84 0 0  85 0 0  86 0 0  87 0 0  88 0 0  89 0 0  90 0 0  91 0 0  92 0 0  93 0 0  94 0 0  95 0 0  96 0 0  97 0 0  98 0 0  99 0 0  100 0 0  0 1 0  1 1 0  2 1 0  3 1 0  4 1 0  5 1 0  6 1 0  7 1 0  8 1 0  9 1 0  10 1 0  11 1 0  12 1 0  13 1 0  14 1 0  15 1 0  16 1 0  17 1 0  18 1 0  19 1 0  20 1 0  21 1 0  22 1 0  23 1 0  24 1 0  25 1 0  26 1 0  27 1 0  28 1 0  29 1 0  30 1 0  31 1 0  32 1 0  33 1 0  34 1 0  35 1 0  36 1 0  37 1 0  38 1 0  39 1 0  40 1 0  41 1 0  42 1 0  43 1 0  44 1 0  45 1 0  46 1 0  47 1 0  48 1 0  49 1 0  50 1 0  51 1 0  52 1 0  53 1 0  54 1 0  55 1 0  56 1 0  57 1 0  58 1 0  59 1 0  60 1 0  61 1 0  62 1 0  63 1 0  64 1 0  65 1 0  66 1 0  67 1 0  68 1 0  69 1 0  70 1 0  71 1 0  72 1 0  73 1 0  74 1 0  75 1 0  76 1 0  77 1 0  78 1 0  79 1 0  80 1 0  81 1 0  82 1 0  83 1 0  84 1 0  85 1 0  86 1 0  87 1 0  88 1 0  89 1 0  90 1 0  91 1 0  92 1 0  93 1 0  94 1 0  95 1 0  96 1 0  97 1 0  98 1 0  99 1 0  100 1 0  0 2 0  1 2 0  2 2 0  3 2 0  4 2 0  5 2 0  6 2 0  7 2 0  8 2 0  9 2 0  10 2 0  11 2 0  12 2 0  13 2 0  14 2 0  15 2 0  16 2 0  17 2 0  18 2 0  19 2 0  20 2 0  21 2 0  22 2 0  23 2 0  24 2 0  25 2 0  26 2 0  27 2 0  28 2 0  29 2 0  30 2 0  31 2 0  32 2 0  33 2 0  34 2 0  35 2 0  36 2 0  37 2 0  38 2 0  39 2 0  40 2 0  41 2 0  42 2 0  43 2 0  44 2 0  45 2 0  46 2 0  47 2 0  48 2 0  49 2 0  50 2 0  51 2 0  52 2 0  53 2 0  54 2 0  55 2 0  56 2 0  57 2 0  58 2 0  59 2 0  60 2 0  61 2 0  62 2 0  63 2 0  64 2 0  65 2 0  66 2 0  67 2 0  68 2 0  69 2 0  70 2 0  71 2 0  72 2 0  73 2 0  74 2 0  75 2 0  76 2 0  77 2 0  78 2 0  79 2 0  80 2 0  81 2 0  82 2 0  83 2 0  84 2 0  85 2 0  86 2 0  87 2 0  88 2 0  89 2 0  90 2 0  91 2 0  92 2 0  93 2 0  94 2 0  95 2 0  96 2 0  97 2 0  98 2 0  99 2 0  100 2 0  0 3 0  1 3 0  2 3 0  3 3 0  4 3 0  5 3 0  6 3 0  7 3 0  8 3 0  9 3 0  10 3 0  11 3 0  12 3 0  13 3 0  14 3 0  15 3 0  16 3 0  17 3 0  18 3 0  19 3 0  20 3 0  21 3 0  22 3 0  23 3 0  24 3 0  25 3 0  26 3 0  27 3 0  28 3 0  29 3 0  30 3 0  31 3 0  32 3 0  33 3 0  34 3 0  35 3 0  36 3 0  37 3 0  38 3 0  39 3 0  40 3 0  41 3 0  42 3 0  43 3 0  44 3 0  45 3 0  46 3 0  47 3 0  48 3 0  49 3 0  50 3 0  51 3 0  52 3 0  53 3 0  54 3 0  55 3 0  56 3 0  57 3 0  58 3 0  59 3 0  60 3 0  61 3 0  62 3 0  63 3 0  64 3 0  65 3 0  66 3 0  67 3 0  68 3 0  69 3 0  70 3 0  71 3 0  72 3 0  73 3 0  74 3 0  75 3 0  76 3 0  77 3 0  78 3 0  79 3 0  80 3 0  81 3 0  82 3 0  83 3 0  84 3 0  85 3 0  86 3 0  87 3 0  88 3 0  89 3 0  90 3 0  91 3 0  92 3 0  93 3 0  94 3 0  95 3 0  96 3 0  97 3 0  98 3 0  99 3 0  100 3 0  0 4 0  1 4 0  2 4 0  3 4 0  4 4 0  5 4 0  6 4 0  7 4 0  8 4 0  9 4 0  10 4 0  11 4 0  12 4 0  13 4 0  14 4 0  15 4 0  16 4 0  17 4 0  18 4 0  19 4 0  20 4 0  21 4 0  22 4 0  23 4 0  24 4 0  25 4 0  26 4 0  27 4 0  28 4 0  29 4 0  30 4 0  31 4 0  32 4 0  33 4 0  34 4 0  35 4 0  36 4 0  37 4 0  38 4 0  39 4 0  40 4 0  41 4 0  42 4 0  43 4 0  44 4 0  45 4 0  46 4 0  47 4 0  48 4 0  49 4 0  50 4 0  51 4 0  52 4 0  53 4 0  54 4 0  55 4 0  56 4 0  57 4 0  58 4 0  59 4 0  60 4 0  61 4 0  62 4 0  63 4 0  64 4 0  65 4 0  66 4 0  67 4 0  68 4 0  69 4 0  70 4 0  71 4 0  72 4 0  73 4 0  74 4 0  75 4 0  76 4 0  77 4 0  78 4 0  79 4 0  80 4 0  81 4 0  82 4 0  83 4 0  84 4 0  85 4 0  86 4 0  87 4 0  88 4 0  89 4 0  90 4 0  91 4 0  92 4 0  93 4 0  94 4 0  95 4 0  96 4 0  97 4 0  98 4 0  99 4 0  100 4 0  0 5 0  1 5 0  2 5 0  3 5 0  4 5 0  5 5 0  6 5 0  7 5 0  8 5 0  9 5 0  10 5 0  11 5 0  12 5 0  13 5 0  14 5 0  15 5 0  16 5 0  17 5 0  18 5 0  19 5 0  20 5 0  21 5 0  22 5 0  23 5 0  24 5 0  25 5 0  26 5 0  27 5 0  28 5 0  29 5 0  30 5 0  31 5 0  32 5 0  33 5 0  34 5 0  35 5 0  36 5 0  37 5 0  38 5 0  39 5 0  40 5 0  41 5 0  42 5 0  43 5 0  44 5 0  45 5 0  46 5 0  47 5 0  48 5 0  49 5 0  50 5 0  51 5 0  52 5 0  53 5 0  54 5 0  55 5 0  56 5 0  57 5 0  58 5 0  59 5 0  60 5 0  61 5 0  62 5 0  63 5 0  64 5 0  65 5 0  66 5 0  67 5 0  68 5 0  69 5 0  70 5 0  71 5 0  72 5 0  73 5 0  74 5 0  75 5 0  76 5 0  77 5 0  78 5 0  79 5 0  80 5 0  81 5 0  82 5 0  83 5 0  84 5 0  85 5 0  86 5 0  87 5 0  88 5 0  89 5 0  90 5 0  91 5 0  92 5 0  93 5 0  94 5 0  95 5 0  96 5 0  97 5 0  98 5 0  99 5 0  100 5 0  0 6 0  1 6 0  2 6 0  3 6 0  4 6 0  5 6 0  6 6 0  7 6 0  8 6 0  9 6 0  10 6 0  11 6 0  12 6 0  13 6 0  14 6 0  15 6 0  16 6 0  17 6 0  18 6 0  19 6 0  20 6 0  21 6 0  22 6 0  23 6 0  24 6 0  25 6 0  26 6 0  27 6 0  28 6 0  29 6 0  30 6 0  31 6 0  32 6 0  33 6 0  34 6 0  35 6 0  36 6 0  37 6 0  38 6 0  39 6 0  40 6 0  41 6 0  42 6 0  43 6 0  44 6 0  45 6 0  46 6 0  47 6 0  48 6 0  49 6 0  50 6 0  51 6 0  52 6 0  53 6 0  54 6 0  55 6 0  56 6 0  57 6 0  58 6 0  59 6 0  60 6 0  61 6 0  62 6 0  63 6 0  64 6 0  65 6 0  66 6 0  67 6 0  68 6 0  69 6 0  70 6 0  71 6 0  72 6 0  73 6 0  74 6 0  75 6 0  76 6 0  77 6 0  78 6 0  79 6 0  80 6 0  81 6 0  82 6 0  83 6 0  84 6 0  85 6 0  86 6 0  87 6 0  88 6 0  89 6 0  90 6 0  91 6 0  92 6 0  93 6 0  94 6 0  95 6 0  96 6 0  97 6 0  98 6 0  99 6 0  100 6 0  0 7 0  1 7 0  2 7 0  3 7 0  4 7 0  5 7 0  6 7 0  7 7 0  8 7 0  9 7 0  10 7 0  11 7 0  12 7 0  13 7 0  14 7 0  15 7 0  16 7 0  17 7 0  18 7 0  19 7 0  20 7 0  21 7 0  22 7 0  23 7 0  24 7 0  25 7 0  26 7 0  27 7 0  28 7 0  29 7 0  30 7 0  31 7 0  32 7 0  33 7 0  34 7 0  35 7 0  36 7 0  37 7 0  38 7 0  39 7 0  40 7 0  41 7 0  42 7 0  43 7 0  44 7 0  45 7 0  46 7 0  47 7 0  48 7 0  49 7 0  50 7 0  51 7 0  52 7 0  53 7 0  54 7 0  55 7 0  56 7 0  57 7 0  58 7 0  59 7 0  60 7 0  61 7 0  62 7 0  63 7 0  64 7 0  65 7 0  66 7 0  67 7 0  68 7 0  69 7 0  70 7 0  71 7 0  72 7 0  73 7 0  74 7 0  75 7 0  76 7 0  77 7 0  78 7 0  79 7 0  80 7 0  81 7 0  82 7 0  83 7 0  84 7 0  85 7 0  86 7 0  87 7 0  88 7 0  89 7 0  90 7 0  91 7 0  92 7 0  93 7 0  94 7 0  95 7 0  96 7 0  97 7 0  98 7 0  99 7 0  100 7 0  0 8 0  1 8 0  2 8 0  3 8 0  4 8 0  5 8 0  6 8 0  7 8 0  8 8 0  9 8 0  10 8 0  11 8 0  12 8 0  13 8 0  14 8 0  15 8 0  16 8 0  17 8 0  18 8 0  19 8 0  20 8 0  21 8 0  22 8 0  23 8 0  24 8 0  25 8 0  26 8 0  27 8 0  28 8 0  29 8 0  30 8 0  31 8 0  32 8 0  33 8 0  34 8 0  35 8 0  36 8 0  37 8 0  38 8 0  39 8 0  40 8 0  41 8 0  42 8 0  43 8 0  44 8 0  45 8 0  46 8 0  47 8 0  48 8 0  49 8 0  50 8 0  51 8 0  52 8 0  53 8 0  54 8 0  55 8 0  56 8 0  57 8 0  58 8 0  59 8 0  60 8 0  61 8 0  62 8 0  63 8 0  64 8 0  65 8 0  66 8 0  67 8 0  68 8 0  69 8 0  70 8 0  71 8 0  72 8 0  73 8 0  74 8 0  75 8 0  76 8 0  77 8 0  78 8 0  79 8 0  80 8 0  81 8 0  82 8 0  83 8 0  84 8 0  85 8 0  86 8 0  87 8 0  88 8 0  89 8 0  90 8 0  91 8 0  92 8 0  93 8 0  94 8 0  95 8 0  96 8 0  97 8 0  98 8 0  99 8 0  100 8 0  0 9 0  1 9 0  2 9 0  3 9 0  4 9 0  5 9 0  6 9 0  7 9 0  8 9 0  9 9 0  10 9 0  11 9 0  12 9 0  13 9 0  14 9 0  15 9 0  16 9 0  17 9 0  18 9 0  19 9 0  20 9 0  21 9 0  22 9 0  23 9 0  24 9 0  25 9 0  26 9 0  27 9 0  28 9 0  29 9 0  30 9 0  31 9 0  32 9 0  33 9 0  34 9 0  35 9 0  36 9 0  37 9 0  38 9 0  39 9 0  40 9 0  41 9 0  42 9 0  43 9 0  44 9 0  45 9 0  46 9 0  47 9 0  48 9 0  49 9 0  50 9 0  51 9 0  52 9 0  53 9 0  54 9 0  55 9 0  56 9 0  57 9 0  58 9 0  59 9 0  60 9 0  61 9 0  62 9 0  63 9 0  64 9 0  65 9 0  66 9 0  67 9 0  68 9 0  69 9 0  70 9 0  71 9 0  72 9 0  73 9 0  74 9 0  75 9 0  76 9 0  77 9 0  78 9 0  79 9 0  80 9 0  81 9 0  82 9 0  83 9 0  84 9 0  85 9 0  86 9 0  87 9 0  88 9 0  89 9 0  90 9 0  91 9 0  92 9 0  93 9 0  94 9 0  95 9 0  96 9 0  97 9 0  98 9 0  99 9 0  100 9 0  0 10 0  1 10 0  2 10 0  3 10 0  4 10 0  5 10 0  6 10 0  7 10 0  8 10 0  9 10 0  10 10 0  11 10 0  12 10 0  13 10 0  14 10 0  15 10 0  16 10 0  17 10 0  18 10 0  19 10 0  20 10 0  21 10 0  22 10 0  23 10 0  24 10 0  25 10 0  26 10 0  27 10 0  28 10 0  29 10 0  30 10 0  31 10 0  32 10 0  33 10 0  34 10 0  35 10 0  36 10 0  37 10 0  38 10 0  39 10 0  40 10 0  41 10 0  42 10 0  43 10 0  44 10 0  45 10 0  46 10 0  47 10 0  48 10 0  49 10 0  50 10 0  51 10 0  52 10 0  53 10 0  54 10 0  55 10 0  56 10 0  57 10 0  58 10 0  59 10 0  60 10 0  61 10 0  62 10 0  63 10 0  64 10 0  65 10 0  66 10 0  67 10 0  68 10 0  69 10 0  70 10 0  71 10 0  72 10 0  73 10 0  74 10 0  75 10 0  76 10 0  77 10 0  78 10 0  79 10 0  80 10 0  81 10 0  82 10 0  83 10 0  84 10 0  85 10 0  86 10 0  87 10 0  88 10 0  89 10 0  90 10 0  91 10 0  92 10 0  93 10 0  94 10 0  95 10 0  96 10 0  97 10 0  98 10 0  99 10 0  100 10 0  0 11 0  1 11 0  2 11 0  3 11 0  4 11 0  5 11 0  6 11 0  7 11 0  8 11 0  9 11 0  10 11 0  11 11 0  12 11 0  13 11 0  14 11 0  15 11 0  16 11 0  17 11 0  18 11 0  19 11 0  20 11 0  21 11 0  22 11 0  23 11 0  24 11 0  25 11 0  26 11 0  27 11 0  28 11 0  29 11 0  30 11 0  31 11 0  32 11 0  33 11 0  34 11 0  35 11 0  36 11 0  37 11 0  38 11 0  39 11 0  40 11 0  41 11 0  42 11 0  43 11 0  44 11 0  45 11 0  46 11 0  47 11 0  48 11 0  49 11 0  50 11 0  51 11 0  52 11 0  53 11 0  54 11 0  55 11 0  56 11 0  57 11 0  58 11 0  59 11 0  60 11 0  61 11 0  62 11 0  63 11 0  64 11 0  65 11 0  66 11 0  67 11 0  68 11 0  69 11 0  70 11 0  71 11 0  72 11 0  73 11 0  74 11 0  75 11 0  76 11 0  77 11 0  78 11 0  79 11 0  80 11 0  81 11 0  82 11 0  83 11 0  84 11 0  85 11 0  86 11 0  87 11 0  88 11 0  89 11 0  90 11 0  91 11 0  92 11 0  93 11 0  94 11 0  95 11 0  96 11 0  97 11 0  98 11 0  99 11 0
[...]
<PointData  Scalars="f_3357-2"> 
<DataArray  type="Float64"  Name="f_3357-2"  format="ascii">0.0000000000000000e+00  2.6723710162938962e-02  5.2833766234403348e-02  7.8339855209054551e-02  1.0325256886134924e-01  1.2758331992693886e-01  1.5134444474191072e-01  1.7454931791477662e-01  1.9721230061853881e-01  2.1934837835035487e-01  2.4097245028983841e-01  2.6209839204682350e-01  2.8273813651618285e-01  3.0290101138701225e-01  3.2259344089502107e-01  3.4181896499732695e-01  3.6057844892090768e-01  3.7887036961479048e-01  3.9669112994713096e-01  4.1403541267306482e-01  4.3089661089214248e-01  4.4726735323143529e-01  4.6314009683662533e-01  4.7850771975387146e-01  4.9336403306278387e-01  5.0770415772906441e-01  5.2152475419747590e-01  5.3482412956618119e-01  5.4760226317019456e-01  5.5986078679581941e-01  5.7160293914699878e-01  5.8283349473931589e-01  5.9355865172859201e-01  6.0378585608482271e-01  6.1352354464376513e-01  6.2278080764945010e-01  6.3156699728102250e-01  6.3989133110283503e-01  6.4776254654386356e-01  6.5518865003918414e-01  6.6217677891943583e-01  6.6873316819049566e-01  6.7486319819173390e-01  6.8057149542431894e-01  6.8586206386971660e-01  6.9073843203185981e-01  6.9520380731278431e-01  6.9926123239032822e-01  7.0291373838478521e-01  7.0616448825435729e-01  7.0901690268423267e-01  7.1147476093034745e-01  7.1354227114029800e-01  7.1522410840609429e-01  7.1652542354299409e-01  7.1745183048870476e-01  7.1800938445647766e-01  7.1820456582642878e-01  7.1804428557785993e-01  7.1753592634182395e-01  7.1668742871823599e-01  7.1550742582191296e-01  7.1400542135458522e-01  7.1219199966533853e-01  7.1007905200801169e-01  7.0768000246487606e-01  7.0501001948657005e-01  7.0208620329777083e-01  6.9892774350212228e-01  6.9555604286796058e-01  6.9199480035257810e-01  6.8827003728067382e-01  6.8441003516110888e-01  6.8044513524274453e-01  6.7640733655056018e-01  6.7232963120347733e-01  6.6824503863772033e-01  6.6418533536459623e-01  6.6017950123188318e-01  6.5625189355048319e-01  6.5242011102010189e-01  6.4869243528858556e-01  6.4506466095677140e-01  6.4151605623412644e-01  6.3800413186642202e-01  6.3445781975235616e-01  6.3076855141646326e-01  6.2677854495760787e-01  6.2226530060100105e-01  6.1692078211165402e-01  6.1032289408084561e-01  6.0189543887681385e-01  5.9085031713386171e-01  5.7610133030537336e-01  5.5613019766448402e-01  5.2876635223383350e-01  4.9079569508744486e-01  4.3718180661031597e-01  3.5921376964058355e-01  2.3843675540336431e-01  0.0000000000000000e+00  0.0000000000000000e+00  2.6720262550325963e-02  5.2827549525027356e-02  7.8331527790687444e-02  1.0324275703672585e-01  1.2757260568821996e-01  1.5133335193456068e-01  1.7453829591710396e-01  1.9720170622061400e-01  2.1933845922540737e-01  2.4096333559899888e-01  2.6209009494500585e-01  2.8273056923650236e-01  3.0289400884562157e-01  3.2258678667692514e-01  3.4181241493968484e-01  3.6057175048594398e-01  3.7886327764596051e-01  3.9668342021391800e-01  4.1402689400321946e-01  4.3088713544326984e-01  4.4725682347764040e-01  4.6312846780115502e-01  4.7849499596815265e-01  4.9335026109138813e-01  5.0768941606935825e-01  5.2150914251094838e-01  5.3480775866608277e-01  5.4758524642053641e-01  5.5984323294275706e-01  5.7158494624695533e-01  5.8281514473958751e-01  5.9354000532033691e-01  6.0376694763674865e-01  6.1350437730855933e-01  6.2276134905274649e-01  6.3154717643131475e-01  6.3987103716291960e-01  6.4774162983406147e-01  6.5516692520669328e-01  6.6215402980632665e-01  6.6870915372147144e-01  6.7483765860693257e-01  6.8054415831755011e-01  6.8583264964897761e-01  6.9070665853085789e-01  6.9516939334449979e-01  6.9922390008010593e-01  7.0287321418959847e-01  7.0612050268467796e-01  7.0896918888356864e-01  7.1142305240075299e-01  7.1348629899046123e-01  7.1516359851475919e-01  7.1646009396991894e-01  7.1738138934639784e-01  7.1793352831254387e-01  7.1812297857822749e-01  7.1795663766364615e-01  7.1744187414720362e-01  7.1658661410396740e-01  7.1539947581619001e-01  7.1388994818203722e-01  7.1206860138898609e-01  7.0994731411920386e-01  7.0753950077211403e-01  7.0486032464390946e-01  7.0192688729525143e-01  6.9875838842998372e-01  6.9537625229128075e-01  6.9180421376400070e-01  6.8806834847341669e-01  6.8419701616614415e-01  6.8022066882673093e-01  6.7617146205698486e-01  6.7208261025962945e-01  6.6798744828488421e-01  6.6391819620627623e-01  6.5990444782448676e-01  6.5597139481611166e-01  6.5213775121802631e-01  6.4841327160613627e-01  6.4479568210055771e-01  6.4126677776851904e-01  6.3778737959342446e-01  6.3429077452122096e-01  6.3067416141392896e-01  6.2678746169508825e-01  6.2241857543235646e-01  6.1727369659707665e-01  6.1095054052870434e-01  6.0290112035751764e-01  5.9237872272655057e-01  5.7836028711240295e-01  5.5942896661409314e-01  5.3358884684964991e-01  4.9795668203244764e-01  4.4821511856632357e-01  3.7758561218259595e-01  2.7516578660030122e-01  1.4237172979226365e-01  0.0000000000000000e+00  2.6709923960801612e-02  5.2808911855326837e-02  7.8306565162533620e-02  1.0321334346401012e-01  1.2754047926013320e-01  1.5130007424233891e-01  1.7450520442267925e-01  1.9716986173134118e-01  2.1930859834755653e-01  2.4093584408569552e-01  2.6206501556476841e-01  2.8270764609547255e-01  3.0287275656926643e-01  3.2256656683300450e-01  3.4179250584297727e-01  3.6055140497701071e-01  3.7884177033280514e-01  3.9666008804738057e-01  4.1400117237327699e-01  4.3085858846535641e-01  4.4722516440732601e-01  4.6309356544893182e-01  4.7845686573220503e-01  4.9330904310258505e-01  5.0764534568336617e-01  5.2146251877899485e-01  5.3475891487522498e-01  5.4753452457715868e-01  5.5979096224412017e-01  5.7153142456038031e-01  5.8276062181770016e-01  5.9348466671576772e-01  6.0371089889174168e-01  6.1344762886871973e-01  6.2270380327024122e-01  6.3148861860247396e-01  6.3981113241579435e-01  6.4767992677463115e-01  6.5510286591830125e-01  6.6208696466703931e-01  6.6863835897609614e-01  6.7476235472781487e-01  6.8046352763532314e-01  6.8574585220916517e-01  6.9061284545417523e-01  6.9506771713519344e-01  6.9911352144260264e-01  7.0275330509416500e-01  7.0599024572205005e-01  7.0882777333589875e-01  7.1126966783620948e-01  7.1332012744849604e-01  7.1498380640780135e-01  7.1626582466667121e-01  7.1717175706840652e-01  7.1770761356228696e-01  7.1787982493640068e-01  7.1769524955019748e-01  7.1716121510412401e-01  7.1628560533829733e-01  7.1507699508209766e-01  7.1354482947448528e-01  7.1169963625627020e-01  7.0955325560814664e-01  7.0711907109336236e-01  7.0441222762857869e-01  7.0144982666307398e-01  6.9825109285657105e-01  6.9483750833737712e-01  6.9123290811829130e-01  6.8746352204978489e-01  6.8355793489766081e-01  6.7954691985482696e-01  6.7546308910199315e-01  6.7134030696252522e-01  6.6721283140846821e-01  6.6311418094186692e-01  6.5907574664262691e-01  6.5512516299947232e-01  6.5128441004206583e-01  6.4756755581221859e-01  6.4397798202734957e-01  6.4050487894664188e-01  6.3711874677774638e-01  6.3376558935853899e-01  6.3035941397746431e-01  6.2677253442140246e-01  6.2282297771258421e-01  6.1825797532895244e-01  6.1273203466983595e-01  6.0577739980236633e-01  5.9676378189761303e-01  5.8484303675854676e-01  5.6887316736810201e-01  5.4731600294310057e-01  5.1811097908400106e-01  4.7857609893146136e-01  4.2564335280746846e-01  3.5813573452356828e-01  2.8184285212220994e-01  0.0000000000000000e+00  2.6692714238768116e-02  5.2777904154261507e-02  7.8265046253551046e-02  1.0316442086533556e-01  1.2748702430041844e-01  1.5124465742632931e-01  1.7445002024586290e-01  1.9711664691546041e-01  2.1925855902583130e-01  2.4088961629804964e-01  2.6202267966614828e-01  2.8266879792375393e-01  3.0283661775616966e-01  3.2253210733609872e-01  3.4175855716171011e-01  3.6051675516599724e-01  3.7880524245260810e-01  3.9662060747040240e-01  4.1395782595736225e-01  4.3081067341752116e-01  4.4717222070100693e-01  4.6303538573882091e-01  4.7839348096993434e-01  4.9324068791361186e-01  5.0757241164030187e-01  5.2138550423241325e-01  5.3467837761005865e-01  5.4745104014618529e-01  5.5970508800534502e-01  5.7144366787520651e-01  5.8267141048911875e-01  5.9339432026434136e-01  6.0361960042000207e-01  6.1335539877377243e-01  6.2261047746358189e-01  6.3139383453705877e-01  6.3971432560727948e-01  6.4758033872704734e-01  6.5499956217529753e-01  6.6197886006004347e-01  6.6852424657167853e-01  6.7464093537967684e-01  6.8033343790489975e-01  6.8560568922047505e-01  6.9046118774355714e-01  6.9490314077564463e-01  6.9893461084990738e-01  7.0255865814634866e-01  7.0577847323597409e-01  7.0859749350638457e-01  7.1101949681552523e-01  7.1304866765715069e-01  7.1468963429168975e-01  7.1594747940817849e-01  7.1682773127354338e-01  7.1733634631042198e-01  7.1747969696109759e-01  7.1726457988652426e-01  7.1669825841567336e-01  7.1578854937053382e-01  7.1454395821615313e-01  7.1297385902376986e-01  7.1108870877087338e-01  7.0890028088845447e-01  7.0642190182083242e-01  7.0366867654442511e-01  7.0065769315522031e-01  6.9740820075903875e-01  6.9394175686880510e-01  6.9028233851338672e-01  6.8645640414339915e-01  6.8249288144334863e-01  6.7842304218547034e-01  6.7428021541374938e-01  6.7009929217457698e-01  6.6591599263873558e-01  6.6176589388492901e-01  6.5768323763711034e-01  6.5369953450488505e-01  6.4984194899016601e-01  6.4613139773376094e-01  6.4258023955536125e-01  6.3918939217419080e-01  6.3594467888372508e-01  6.3281218219866286e-01  6.2973234911470588e-01  6.2661253940978978e-01  6.2331761898170657e-01  6.1965806905819265e-01  6.1537493565000512e-01  6.1012087171697083e-01  6.0343673552481958e-01  5.9472419234601881e-01  5.8321781425633856e-01  5.6796891366147817e-01  5.4787812016376636e-01  5.2188275361336922e-01  4.8957204485755823e-01  4.5250395723518089e-01  4.1557185499305199e-01  0.0000000000000000e+00  2.6668688693375513e-02  5.2734653639904878e-02  7.8207164740069127e-02  1.0309622664008045e-01  1.2741248578419076e-01  1.5116730860271391e-01  1.7437286354383255e-01  1.9704204983106938e-01  2.1918816455149057e-01  2.4082429727665794e-01  2.6196256195769207e-01  2.8261335549122146e-01  3.0278481795080603e-01  3.2248257314179085e-01  3.4170971927096161e-01  3.6046698189937337e-01  3.7875294843833607e-01  3.9656434685309011e-01  4.1389637322309802e-01  4.3074308885824814e-01  4.4709789304059916e-01  4.6295404486224545e-01  4.7830517906690168e-01  4.9314575447858466e-01  5.0747139262647190e-01  5.2127909618065549e-01  5.3456736455236942e-01  5.4733623680703769e-01  5.5958728927925705e-01  5.7132360262023274e-01  5.8254969734519613e-01  5.9327142414814893e-01  6.0349579016620669e-01  6.1323070854974215e-01  6.2248467627315018e-01  6.3126640844380300e-01  6.3958447579060851e-01  6.4744699560159447e-01  6.5486141279858334e-01  6.6183438416670493e-01  6.6837175629413137e-01  6.7447861466003400e-01  6.8015937897110479e-01  6.8541792462514617e-01  6.9025771708402883e-01  6.9468195142641975e-01  6.9869369211398347e-01  7.0229600842426110e-01  7.0549210024615860e-01  7.0828540823237995e-01  7.1067970254571966e-01  7.1267914601595284e-01  7.1428833036855111e-01  7.1551228789825094e-01  7.1635648498789528e-01  7.1682680762710538e-01  7.1692955196533770e-01  7.1667143430445768e-01  7.1605963417004725e-01  7.1510188078471637e-01  7.1380658754046333e-01  7.1218303189215304e-01  7.1024157116733067e-01  7.0799387997739005e-01  7.0545319344712476e-01  7.0263454234855349e-01  6.9955497019042190e-01  6.9623372641715009e-01  6.9269243207614151e-01  6.8895521297838502e-01  6.8504878961032500e-01  6.8100250327189960e-01  6.7684824667403887e-01  6.7262025960497518e-01  6.6835475238695108e-01  6.6408933479453003e-01  6.5986225135670029e-01  6.5571144294190420e-01  6.5167345542124711e-01  6.4778219387027014e-01  6.4406748276597758e-01  6.4055335360298182e-01  6.3725595347293940e-01  6.3418095587811940e-01  6.3132035599511793e-01  6.2864854098892065e-01  6.2611753636970346e-01  6.2365134359976093e-01  6.2113932664422900e-01  6.1842874894187272e-01  6.1531696533638480e-01  6.1154474174433560e-01  6.0679431302830000e-01  6.0070035267849309e-01  5.9289157890841770e-01  5.8309960202471234e-01  5.7140150237048370e-01  5.5866771928811831e-01  5.4715041193222635e-01  5.4083421335883153e-01  0.0000000000000000e+00  2.6637967464716555e-02  5.2679419058650014e-02  7.8133308214528907e-02  1.0300924542566846e-01  1.2731739675145604e-01  1.5106854905535941e-01  1.7427417906610393e-01  1.9694637838825241e-01  2.1909754025365538e-01  2.4073980675038845e-01  2.6188437949903426e-01  2.8254085944468005e-01  3.0271676430922562e-01  3.2241728995766206e-01  3.4164529160394319e-01  3.6040141293606881e-01  3.7868429630386402e-01  3.9649084210442265e-01  4.1381651944459241e-01  4.3065574262640077e-01  4.4700231513971250e-01  4.6284991552629856e-01  4.7819257606456084e-01  4.9302510056605653e-01  5.0734338402094770e-01  5.2114462414229901e-01  5.3442743876866705e-01  5.4719191450193760e-01  5.5943961000199516e-01  5.7117352655538722e-01  5.8239804483517932e-01  5.9311881559352797e-01  6.0334258800506302e-01  6.1307696574531456e-01  6.2233009746673706e-01  6.3111032955954438e-01  6.3942586515297573e-01  6.4728447554133017e-01  6.5469329704140045e-01  6.6165872444535356e-01  6.6818639188889106e-01  6.7428122020658832e-01  6.7994750779187518e-01  6.8518904626610833e-01  6.9000924844215583e-01  6.9441128101907168e-01  6.9839819702306627e-01  7.0197306355387090e-01  7.0513907991633251e-01  7.0789968076929966e-01  7.1025861926038103e-01  7.1222002657127648e-01  7.1378844682674336e-01  7.1496884960945806e-01  7.1576662593230511e-01  7.1618757696497370e-01  7.1623790757387829e-01  7.1592423822757745e-01  7.1525364842160533e-01  7.1423376201366517e-01  7.1287287973892421e-01  7.1118015747750052e-01  7.0916582211385681e-01  7.0684141187880556e-01  7.0422002621054436e-01  7.0131657158227811e-01  6.9814799336063071e-01  6.9473348775609256e-01  6.9109469038642191e-01  6.8725583741829588e-01  6.8324389100145810e-01  6.7908861328242842e-01  6.7482256490906933e-01  6.7048099867076982e-01  6.6610162143385221e-01  6.6172421013647875e-01  6.5739008698316914e-01  6.5314147591970417e-01  6.4902076669474418e-01  6.4506970018908705e-01  6.4132846474544059e-01  6.3783466979790038e-01  6.3462215144960976e-01  6.3171957087474540e-01  6.2914879138667412e-01  6.2692306229148476e-01  6.2504509844008316e-01  6.2350523635632504e-01  6.2228001021003543e-01  6.2133180984138014e-01  6.2061091378252464e-01  6.2006238643193357e-01  6.1964249157979689e-01  6.1935299371460950e-01  6.1930755537500704e-01  6.1985147825439413e-01  6.2175668460994526e-01  6.2648662658003018e-01  6.3645015485850487e-01  6.5507789717851861e-01  0.0000000000000000e+00  2.6600771528709793e-02  5.2612656229348076e-02  7.8044147884032702e-02  1.0290431924406547e-01  1.2720270706246462e-01  1.5094936155254923e-01  1.7415490337082476e-01  1.9683044935446939e-01  2.1898732557399489e-01  2.4063657386335652e-01  2.6178834644536830e-01  2.8245133047691207e-01  3.0263232543547469e-01  3.2233602765873121e-01  3.4156500372425452e-01  3.6031979601917608e-01  3.7859910720751544e-01  3.9640003729028023e-01  4.1371837311989940e-01  4.3054893928079374e-01  4.4688600823863983e-01  4.6272374553378126e-01  4.7805664727777475e-01  4.9287992397068198e-01  5.0718979841196532e-01  5.2098370809137950e-01  5.3426042251394867e-01  5.4702009591271161e-01  5.5926427466385842e-01  5.7099586991356999e-01  5.8221909445674247e-01  5.9293935362984329e-01  6.0316307710819839e-01  6.1289748480005946e-01  6.2215029501218377e-01  6.3092940151168908e-01  6.3924255945558306e-01  6.4709712120883922e-01  6.5449985090802743e-01  6.6145682728629052e-01  6.6797342646123892e-01  6.7405436606916647e-01  6.7970379018099281e-01  6.8492537798776099e-01  6.8972246450608854e-01  6.9409816585482187e-01  6.9805550400167193e-01  7.0159752653998131e-01  7.0472741686878781e-01  7.0744858998431581e-01  7.0976476956276546e-01  7.1168004339395241e-01  7.1319889647756318e-01  7.1432622397652334e-01  7.1506732939264273e-01  7.1542791640638437e-01  7.1541408537882112e-01  7.1503234703979734e-01  7.1428966580306730e-01  7.1319354296387527e-01  7.1175214564091394e-01  7.0997448130409169e-01  7.0787061140120666e-01  7.0545189264116959e-01  7.0273123224908496e-01  6.9972334433710226e-01  6.9644499762893863e-01  6.9291524853527098e-01  6.8915565625319675e-01  6.8519047682893564e-01  6.8104683044470782e-01  6.7675483111183299e-01  6.7234766235267818e-01  6.6786157948182279e-01  6.6333582218712606e-01  6.5881243189939143e-01  6.5433598460080833e-01  6.4995326487699312e-01  6.4571291401021647e-01  6.4166508080673712e-01  6.3786109270667946e-01  6.3435315577431162e-01  6.3119409514108338e-01  6.2843716886349577e-01  6.2613603058463907e-01  6.2434498093638036e-01  6.2311973883657401e-01  6.2251909807809414e-01  6.2260805122842577e-01  6.2346333406978982e-01  6.2518297720446325e-01  6.2790248093945988e-01  6.3182178119043597e-01  6.3724923993296534e-01  6.4467091840735380e-01  6.5485325299132802e-01  6.6897996619725697e-01  6.8880343282461687e-01  7.1675935606586150e-01  7.5597536514673225e-01  0.0000000000000000e+00  2.6557464421969646e-02  5.2535089146978756e-02  7.7940728394244069e-02  1.0278274804559999e-01  1.2706988953536416e-01  1.5081129980107444e-01  1.7401657787453542e-01  1.9669570712752490e-01  2.1885880142105868e-01  2.4051567544166350e-01  2.6167532405129235e-01  2.8234543000103257e-01  3.0253199999629282e-01  3.2223917303030930e-01  3.4146918790767977e-01  3.6022246696085530e-01  3.7849777490087522e-01  3.9629243164784173e-01  4.1360257721401006e-01  4.3042349279886266e-01  4.4674997308999359e-01  4.6257672742734918e-01  4.7789877334221015e-01  4.9271178385528508e-01  5.0701236104762415e-01  5.2079822658715802e-01  5.3406833629799799e-01  5.4682293445545138e-01  5.5906356312516181e-01  5.7079303509805901e-01  5.8201536988055180e-01  5.9273568496281714e-01  6.0296003283842459e-01  6.1269518017772462e-01  6.2194833842773700e-01  6.3072687031912367e-01  6.3903800724546589e-01  6.4688861262353903e-01  6.5428501570882558e-01  6.6123292397784217e-01  6.6773740715532626e-01  6.7380293708432570e-01  6.7943346565936025e-01  6.8463252569154542e-01  6.8940334378407930e-01  6.9374895786341784e-01  6.9767233408310225e-01  7.0117647857349241e-01  7.0426453960773705e-01  7.0693989587985817e-01  7.0920622722574456e-01  7.1106756546728311e-01  7.1252832508886199e-01  7.1359331597295461e-01  7.1426774316420127e-01  7.1455720130771982e-01  7.1446767368447361e-01  7.1400554722793363e-01  7.1317765505097552e-01  7.1199135637272593e-01  7.1045466013142400e-01  7.0857639338793388e-01  7.0636640991756472e-01  7.0383582961437363e-01  7.0099729678009393e-01  6.9786524555661456e-01  6.9445616317983605e-01  6.9078884509386318e-01  6.8688463875444494e-01  6.8276767399516058e-01  6.7846507667557121e-01  6.7400715946321688e-01  6.6942758054166662e-01  6.6476346015688004e-01  6.6005544866464716e-01  6.5534774924417727e-01  6.5068811214964961e-01  6.4612783110510885e-01  6.4172178157930504e-01  6.3752854342021681e-01  6.3361064973808834e-01  6.3003500696772508e-01  6.2687354553776165e-01  6.2420419235744595e-01  6.2211230841053988e-01  6.2069280903242718e-01  6.2005328602874454e-01  6.2031859431793190e-01  6.2163758149622950e-01  6.2419297286536057e-01  6.2821592778220225e-01  6.3400748191968070e-01  6.4196992610598635e-01  6.5265187725270157e-01  6.6681065311179855e-01  6.8549313646638221e-01  7.1012972021528731e-01  7.4262472645582867e-01  7.8541542094843275e-01  8.4147098480789650e-01  0.0000000000000000e+00  2.6508599494329748e-02  5.2447782900988130e-02  7.7824549723434180e-02  1.0264636875715036e-01  1.2692100879571733e-01  1.5065654384573685e-01  1.7386139113247331e-01  1.9654425594094463e-01  2.1871391685136912e-01  2.4037886187742274e-01  2.6154684951292123e-01  2.8222449402927230e-01  3.0241695589451334e-01  3.2212777300762524e-01  3.4135882432037251e-01  3.6011039433591890e-01  3.7838130769279327e-01  3.9616911704516017e-01  4.1347034091781493e-01  4.3028075196107518e-01  4.465957086