<?xml version="1.0"?>
<VTKFile type="UnstructuredGrid"  version="0.1"  >
<UnstructuredGrid>
<Piece  NumberOfPoints="20201" NumberOfCells="40000">
<Points>
<DataArray  type="Float64"  NumberOfComponents="3"  format="ascii">0 0 0  1 0 0  2 0 0  3 0 0  4 0 0  5 0 0  6 0 0  7 0 0  8 0 0  9 0 0  10 0 0  11 0 0  12 0 0  13 0 0  14 0 0  15 0 0  16 0 0  17 0 0  18 0 0  19 0 0  20 0 0  21 0 0  22 0 0  23 0 0  24 0 0  25 0 0  26 0 0  27 0 0  28 0 0  29 0 0  30 0 0  31 0 0  32 0 0  33 0 0  34 0 0  35 0 0  36 0 0  37 0 0  38 0 0  39 0 0  40 0 0  41 0 0  42 0 0  43 0 0  44 0 0  45 0 0  46 0 0  47 0 0  48 0 0  49 0 0  50 0 0  51 0 0  52 0 0  53 0 0  54 0 0  55 0 0  56 0 0  57 0 0  58 0 0  59 0 0  60 0 0  61 0 0  62 0 0  63 0 0  64 0 0  65 0 0  66 0 0  67 0 0  68 0 0  69 0 0  70 0 0  71 0 0  72 0 0  73 0 0  74 0 0  75 0 0  76 0 0  77 0 0  78 0 0  79 0 0  80 0 0  81 0 0  82 0 0  83 0 0  84 0 0  85 0 0  86 0 0  87 0 0  88 0 0  89 0 0  90 0 0  91 0 0  92 0 0  93 0 0  94 0 0  95 0 0  96 0 0  97 0 0  98 0 0  99 0 0  100 0 0  0 1 0  1 1 0  2 1 0  3 1 0  4 1 0  5 1 0  6 1 0  7 1 0  8 1 0  9 1 0  10 1 0  11 1 0  12 1 0  13 1 0  14 1 0  15 1 0  16 1 0  17 1 0  18 1 0  19 1 0  20 1 0  21 1 0  22 1 0  23 1 0  24 1 0  25 1 0  26 1 0  27 1 0  28 1 0  29 1 0  30 1 0  31 1 0  32 1 0  33 1 0  34 1 0  35 1 0  36 1 0  37 1 0  38 1 0  39 1 0  40 1 0  41 1 0  42 1 0  43 1 0  44 1 0  45 1 0  46 1 0  47 1 0  48 1 0  49 1 0  50 1 0  51 1 0  52 1 0  53 1 0  54 1 0  55 1 0  56 1 0  57 1 0  58 1 0  59 1 0  60 1 0  61 1 0  62 1 0  63 1 0  64 1 0  65 1 0  66 1 0  67 1 0  68 1 0  69 1 0  70 1 0  71 1 0  72 1 0  73 1 0  74 1 0  75 1 0  76 1 0  77 1 0  78 1 0  79 1 0  80 1 0  81 1 0  82 1 0  83 1 0  84 1 0  85 1 0  86 1 0  87 1 0  88 1 0  89 1 0  90 1 0  91 1 0  92 1 0  93 1 0  94 1 0  95 1 0  96 1 0  97 1 0  98 1 0  99 1 0  100 1 0  0 2 0  1 2 0  2 2 0  3 2 0  4 2 0  5 2 0  6 2 0  7 2 0  8 2 0  9 2 0  10 2 0  11 2 0  12 2 0  13 2 0  14 2 0  15 2 0  16 2 0  17 2 0  18 2 0  19 2 0  20 2 0  21 2 0  22 2 0  23 2 0  24 2 0  25 2 0  26 2 0  27 2 0  28 2 0  29 2 0  30 2 0  31 2 0  32 2 0  33 2 0  34 2 0  35 2 0  36 2 0  37 2 0  38 2 0  39 2 0  40 2 0  41 2 0  42 2 0  43 2 0  44 2 0  45 2 0  46 2 0  47 2 0  48 2 0  49 2 0  50 2 0  51 2 0  52 2 0  53 2 0  54 2 0  55 2 0  56 2 0  57 2 0  58 2 0  59 2 0  60 2 0  61 2 0  62 2 0  63 2 0  64 2 0  65 2 0  66 2 0  67 2 0  68 2 0  69 2 0  70 2 0  71 2 0  72 2 0  73 2 0  74 2 0  75 2 0  76 2 0  77 2 0  78 2 0  79 2 0  80 2 0  81 2 0  82 2 0  83 2 0  84 2 0  85 2 0  86 2 0  87 2 0  88 2 0  89 2 0  90 2 0  91 2 0  92 2 0  93 2 0  94 2 0  95 2 0  96 2 0  97 2 0  98 2 0  99 2 0  100 2 0  0 3 0  1 3 0  2 3 0  3 3 0  4 3 0  5 3 0  6 3 0  7 3 0  8 3 0  9 3 0  10 3 0  11 3 0  12 3 0  13 3 0  14 3 0  15 3 0  16 3 0  17 3 0  18 3 0  19 3 0  20 3 0  21 3 0  22 3 0  23 3 0  24 3 0  25 3 0  26 3 0  27 3 0  28 3 0  29 3 0  30 3 0  31 3 0  32 3 0  33 3 0  34 3 0  35 3 0  36 3 0  37 3 0  38 3 0  39 3 0  40 3 0  41 3 0  42 3 0  43 3 0  44 3 0  45 3 0  46 3 0  47 3 0  48 3 0  49 3 0  50 3 0  51 3 0  52 3 0  53 3 0  54 3 0  55 3 0  56 3 0  57 3 0  58 3 0  59 3 0  60 3 0  61 3 0  62 3 0  63 3 0  64 3 0  65 3 0  66 3 0  67 3 0  68 3 0  69 3 0  70 3 0  71 3 0  72 3 0  73 3 0  74 3 0  75 3 0  76 3 0  77 3 0  78 3 0  79 3 0  80 3 0  81 3 0  82 3 0  83 3 0  84 3 0  85 3 0  86 3 0  87 3 0  88 3 0  89 3 0  90 3 0  91 3 0  92 3 0  93 3 0  94 3 0  95 3 0  96 3 0  97 3 0  98 3 0  99 3 0  100 3 0  0 4 0  1 4 0  2 4 0  3 4 0  4 4 0  5 4 0  6 4 0  7 4 0  8 4 0  9 4 0  10 4 0  11 4 0  12 4 0  13 4 0  14 4 0  15 4 0  16 4 0  17 4 0  18 4 0  19 4 0  20 4 0  21 4 0  22 4 0  23 4 0  24 4 0  25 4 0  26 4 0  27 4 0  28 4 0  29 4 0  30 4 0  31 4 0  32 4 0  33 4 0  34 4 0  35 4 0  36 4 0  37 4 0  38 4 0  39 4 0  40 4 0  41 4 0  42 4 0  43 4 0  44 4 0  45 4 0  46 4 0  47 4 0  48 4 0  49 4 0  50 4 0  51 4 0  52 4 0  53 4 0  54 4 0  55 4 0  56 4 0  57 4 0  58 4 0  59 4 0  60 4 0  61 4 0  62 4 0  63 4 0  64 4 0  65 4 0  66 4 0  67 4 0  68 4 0  69 4 0  70 4 0  71 4 0  72 4 0  73 4 0  74 4 0  75 4 0  76 4 0  77 4 0  78 4 0  79 4 0  80 4 0  81 4 0  82 4 0  83 4 0  84 4 0  85 4 0  86 4 0  87 4 0  88 4 0  89 4 0  90 4 0  91 4 0  92 4 0  93 4 0  94 4 0  95 4 0  96 4 0  97 4 0  98 4 0  99 4 0  100 4 0  0 5 0  1 5 0  2 5 0  3 5 0  4 5 0  5 5 0  6 5 0  7 5 0  8 5 0  9 5 0  10 5 0  11 5 0  12 5 0  13 5 0  14 5 0  15 5 0  16 5 0  17 5 0  18 5 0  19 5 0  20 5 0  21 5 0  22 5 0  23 5 0  24 5 0  25 5 0  26 5 0  27 5 0  28 5 0  29 5 0  30 5 0  31 5 0  32 5 0  33 5 0  34 5 0  35 5 0  36 5 0  37 5 0  38 5 0  39 5 0  40 5 0  41 5 0  42 5 0  43 5 0  44 5 0  45 5 0  46 5 0  47 5 0  48 5 0  49 5 0  50 5 0  51 5 0  52 5 0  53 5 0  54 5 0  55 5 0  56 5 0  57 5 0  58 5 0  59 5 0  60 5 0  61 5 0  62 5 0  63 5 0  64 5 0  65 5 0  66 5 0  67 5 0  68 5 0  69 5 0  70 5 0  71 5 0  72 5 0  73 5 0  74 5 0  75 5 0  76 5 0  77 5 0  78 5 0  79 5 0  80 5 0  81 5 0  82 5 0  83 5 0  84 5 0  85 5 0  86 5 0  87 5 0  88 5 0  89 5 0  90 5 0  91 5 0  92 5 0  93 5 0  94 5 0  95 5 0  96 5 0  97 5 0  98 5 0  99 5 0  100 5 0  0 6 0  1 6 0  2 6 0  3 6 0  4 6 0  5 6 0  6 6 0  7 6 0  8 6 0  9 6 0  10 6 0  11 6 0  12 6 0  13 6 0  14 6 0  15 6 0  16 6 0  17 6 0  18 6 0  19 6 0  20 6 0  21 6 0  22 6 0  23 6 0  24 6 0  25 6 0  26 6 0  27 6 0  28 6 0  29 6 0  30 6 0  31 6 0  32 6 0  33 6 0  34 6 0  35 6 0  36 6 0  37 6 0  38 6 0  39 6 0  40 6 0  41 6 0  42 6 0  43 6 0  44 6 0  45 6 0  46 6 0  47 6 0  48 6 0  49 6 0  50 6 0  51 6 0  52 6 0  53 6 0  54 6 0  55 6 0  56 6 0  57 6 0  58 6 0  59 6 0  60 6 0  61 6 0  62 6 0  63 6 0  64 6 0  65 6 0  66 6 0  67 6 0  68 6 0  69 6 0  70 6 0  71 6 0  72 6 0  73 6 0  74 6 0  75 6 0  76 6 0  77 6 0  78 6 0  79 6 0  80 6 0  81 6 0  82 6 0  83 6 0  84 6 0  85 6 0  86 6 0  87 6 0  88 6 0  89 6 0  90 6 0  91 6 0  92 6 0  93 6 0  94 6 0  95 6 0  96 6 0  97 6 0  98 6 0  99 6 0  100 6 0  0 7 0  1 7 0  2 7 0  3 7 0  4 7 0  5 7 0  6 7 0  7 7 0  8 7 0  9 7 0  10 7 0  11 7 0  12 7 0  13 7 0  14 7 0  15 7 0  16 7 0  17 7 0  18 7 0  19 7 0  20 7 0  21 7 0  22 7 0  23 7 0  24 7 0  25 7 0  26 7 0  27 7 0  28 7 0  29 7 0  30 7 0  31 7 0  32 7 0  33 7 0  34 7 0  35 7 0  36 7 0  37 7 0  38 7 0  39 7 0  40 7 0  41 7 0  42 7 0  43 7 0  44 7 0  45 7 0  46 7 0  47 7 0  48 7 0  49 7 0  50 7 0  51 7 0  52 7 0  53 7 0  54 7 0  55 7 0  56 7 0  57 7 0  58 7 0  59 7 0  60 7 0  61 7 0  62 7 0  63 7 0  64 7 0  65 7 0  66 7 0  67 7 0  68 7 0  69 7 0  70 7 0  71 7 0  72 7 0  73 7 0  74 7 0  75 7 0  76 7 0  77 7 0  78 7 0  79 7 0  80 7 0  81 7 0  82 7 0  83 7 0  84 7 0  85 7 0  86 7 0  87 7 0  88 7 0  89 7 0  90 7 0  91 7 0  92 7 0  93 7 0  94 7 0  95 7 0  96 7 0  97 7 0  98 7 0  99 7 0  100 7 0  0 8 0  1 8 0  2 8 0  3 8 0  4 8 0  5 8 0  6 8 0  7 8 0  8 8 0  9 8 0  10 8 0  11 8 0  12 8 0  13 8 0  14 8 0  15 8 0  16 8 0  17 8 0  18 8 0  19 8 0  20 8 0  21 8 0  22 8 0  23 8 0  24 8 0  25 8 0  26 8 0  27 8 0  28 8 0  29 8 0  30 8 0  31 8 0  32 8 0  33 8 0  34 8 0  35 8 0  36 8 0  37 8 0  38 8 0  39 8 0  40 8 0  41 8 0  42 8 0  43 8 0  44 8 0  45 8 0  46 8 0  47 8 0  48 8 0  49 8 0  50 8 0  51 8 0  52 8 0  53 8 0  54 8 0  55 8 0  56 8 0  57 8 0  58 8 0  59 8 0  60 8 0  61 8 0  62 8 0  63 8 0  64 8 0  65 8 0  66 8 0  67 8 0  68 8 0  69 8 0  70 8 0  71 8 0  72 8 0  73 8 0  74 8 0  75 8 0  76 8 0  77 8 0  78 8 0  79 8 0  80 8 0  81 8 0  82 8 0  83 8 0  84 8 0  85 8 0  86 8 0  87 8 0  88 8 0  89 8 0  90 8 0  91 8 0  92 8 0  93 8 0  94 8 0  95 8 0  96 8 0  97 8 0  98 8 0  99 8 0  100 8 0  0 9 0  1 9 0  2 9 0  3 9 0  4 9 0  5 9 0  6 9 0  7 9 0  8 9 0  9 9 0  10 9 0  11 9 0  12 9 0  13 9 0  14 9 0  15 9 0  16 9 0  17 9 0  18 9 0  19 9 0  20 9 0  21 9 0  22 9 0  23 9 0  24 9 0  25 9 0  26 9 0  27 9 0  28 9 0  29 9 0  30 9 0  31 9 0  32 9 0  33 9 0  34 9 0  35 9 0  36 9 0  37 9 0  38 9 0  39 9 0  40 9 0  41 9 0  42 9 0  43 9 0  44 9 0  45 9 0  46 9 0  47 9 0  48 9 0  49 9 0  50 9 0  51 9 0  52 9 0  53 9 0  54 9 0  55 9 0  56 9 0  57 9 0  58 9 0  59 9 0  60 9 0  61 9 0  62 9 0  63 9 0  64 9 0  65 9 0  66 9 0  67 9 0  68 9 0  69 9 0  70 9 0  71 9 0  72 9 0  73 9 0  74 9 0  75 9 0  76 9 0  77 9 0  78 9 0  79 9 0  80 9 0  81 9 0  82 9 0  83 9 0  84 9 0  85 9 0  86 9 0  87 9 0  88 9 0  89 9 0  90 9 0  91 9 0  92 9 0  93 9 0  94 9 0  95 9 0  96 9 0  97 9 0  98 9 0  99 9 0  100 9 0  0 10 0  1 10 0  2 10 0  3 10 0  4 10 0  5 10 0  6 10 0  7 10 0  8 10 0  9 10 0  10 10 0  11 10 0  12 10 0  13 10 0  14 10 0  15 10 0  16 10 0  17 10 0  18 10 0  19 10 0  20 10 0  21 10 0  22 10 0  23 10 0  24 10 0  25 10 0  26 10 0  27 10 0  28 10 0  29 10 0  30 10 0  31 10 0  32 10 0  33 10 0  34 10 0  35 10 0  36 10 0  37 10 0  38 10 0  39 10 0  40 10 0  41 10 0  42 10 0  43 10 0  44 10 0  45 10 0  46 10 0  47 10 0  48 10 0  49 10 0  50 10 0  51 10 0  52 10 0  53 10 0  54 10 0  55 10 0  56 10 0  57 10 0  58 10 0  59 10 0  60 10 0  61 10 0  62 10 0  63 10 0  64 10 0  65 10 0  66 10 0  67 10 0  68 10 0  69 10 0  70 10 0  71 10 0  72 10 0  73 10 0  74 10 0  75 10 0  76 10 0  77 10 0  78 10 0  79 10 0  80 10 0  81 10 0  82 10 0  83 10 0  84 10 0  85 10 0  86 10 0  87 10 0  88 10 0  89 10 0  90 10 0  91 10 0  92 10 0  93 10 0  94 10 0  95 10 0  96 10 0  97 10 0  98 10 0  99 10 0  100 10 0  0 11 0  1 11 0  2 11 0  3 11 0  4 11 0  5 11 0  6 11 0  7 11 0  8 11 0  9 11 0  10 11 0  11 11 0  12 11 0  13 11 0  14 11 0  15 11 0  16 11 0  17 11 0  18 11 0  19 11 0  20 11 0  21 11 0  22 11 0  23 11 0  24 11 0  25 11 0  26 11 0  27 11 0  28 11 0  29 11 0  30 11 0  31 11 0  32 11 0  33 11 0  34 11 0  35 11 0  36 11 0  37 11 0  38 11 0  39 11 0  40 11 0  41 11 0  42 11 0  43 11 0  44 11 0  45 11 0  46 11 0  47 11 0  48 11 0  49 11 0  50 11 0  51 11 0  52 11 0  53 11 0  54 11 0  55 11 0  56 11 0  57 11 0  58 11 0  59 11 0  60 11 0  61 11 0  62 11 0  63 11 0  64 11 0  65 11 0  66 11 0  67 11 0  68 11 0  69 11 0  70 11 0  71 11 0  72 11 0  73 11 0  74 11 0  75 11 0  76 11 0  77 11 0  78 11 0  79 11 0  80 11 0  81 11 0  82 11 0  83 11 0  84 11 0  85 11 0  86 11 0  87 11 0  88 11 0  89 11 0  90 11 0  91 11 0  92 11 0  93 11 0  94 11 0  95 11 0  96 11 0  97 11 0  98 11 0  99 11 0
[...]
<PointData  Scalars="f_3357-2"> 
<DataArray  type="Float64"  Name="f_3357-2"  format="ascii">0.0000000000000000e+00  2.6714150297610598e-02  5.2817058484377628e-02  7.8318920581117779e-02  1.0323096667293941e-01  1.2756541554784043e-01  1.5133536857969990e-01  1.7455454174308932e-01  1.9723685360303705e-01  2.1939592844447087e-01  2.4104457642118715e-01  2.6219430650629266e-01  2.8285491797770840e-01  3.0303420014275229e-01  3.2273775157146595e-01  3.4196891600142282e-01  3.6072882568484127e-01  3.7901654262836504e-01  3.9682928985925858e-01  4.1416276491313864e-01  4.3101152432844086e-01  4.4736942129814655e-01  4.6323007096528868e-01  4.7858731244818670e-01  4.9343563626672216e-01  5.0777055095155488e-01  5.2158887132112719e-01  5.3488892010681899e-01  5.4767064182877723e-01  5.5993563222836951e-01  5.7168708875082619e-01  5.8292968882287299e-01  5.9366940421073378e-01  6.0391326228996667e-01  6.1366906858525638e-01  6.2294510865079122e-01  6.3174984996059147e-01  6.4009166473507517e-01  6.4797859203207231e-01  6.5541815247660673e-01  6.6241722293356398e-01  6.6898197257930636e-01  6.7511785707937033e-01  6.8082966417408963e-01  6.8612160171445624e-01  6.9099741775261148e-01  6.9546054145765146e-01  6.9951423336277119e-01  7.0316173385050829e-01  7.0640639996747856e-01  7.0925182266426534e-01  7.1170191927480797e-01  7.1376099924024550e-01  7.1543380441749282e-01  7.1672552845119719e-01  7.1764182233038598e-01  7.1818879517083678e-01  7.1837302030692218e-01  7.1820155684866016e-01  7.1768199591507520e-01  7.1682253879669411e-01  7.1563211140070970e-01  7.1412051566941526e-01  7.1229861454392762e-01  7.1017854289242555e-01  7.0777393308833381e-01  7.0510014096333118e-01  7.0217445580474913e-01  6.9901627677622014e-01  6.9564723725643074e-01  6.9209125768041879e-01  6.8837450620045104e-01  6.8452524478936538e-01  6.8057353655789155e-01  6.7655078856516515e-01  6.7248910366649828e-01  6.6842041463163016e-01  6.6437537227193788e-01  6.6038195379669995e-01  6.5646374487168302e-01  6.5263782647999580e-01  6.4891216456291589e-01  6.4528235589309091e-01  6.4172752582427717e-01  6.3820509759351063e-01  6.3464404927751450e-01  6.3093612736761806e-01  6.2692426934740297e-01  6.2238715941053768e-01  6.1701833045863475e-01  6.1039740593292635e-01  6.0194971042904222e-01  5.9088809706636214e-01  5.7612644032292204e-01  5.5614551445855598e-01  5.2877301076217198e-01  4.9079313852164419e-01  4.3716937644980830e-01  3.5919389191585516e-01  2.3841837372987082e-01  0.0000000000000000e+00  0.0000000000000000e+00  2.6710490948867238e-02  5.2810596250775374e-02  7.8310438513747818e-02  1.0322115581849689e-01  1.2755486735011520e-01  1.5132457166750302e-01  1.7454388002090493e-01  1.9722660580842755e-01  2.1938627067574476e-01  2.4103558871105460e-01  2.6218598338892524e-01  2.8284718206136117e-01  3.0302691733568554e-01  3.2273074676002461e-01  3.4196198837364949e-01  3.6072176326045063e-01  3.7900913575054940e-01  3.9682134341063435e-01  4.1415410890371962e-01  4.3100202237116020e-01  4.4735897644436678e-01  4.6321862849117057e-01  4.7857485946011463e-01  4.9342219834539608e-01  5.0775618635810771e-01  5.2157366345609224e-01  5.3487296892964398e-01  5.4765405485963492e-01  5.5991851563180128e-01  5.7166953889112548e-01  5.8291178460320348e-01  5.9365120045783060e-01  6.0389478440868605e-01  6.1365030866517500e-01  6.2292602314753598e-01  6.3173035899258434e-01  6.4007165293680723e-01  6.4795791080132703e-01  6.5539662336189064e-01  6.6239464184257113e-01  6.6895811445505493e-01  6.7509248068615146e-01  6.8080251665577529e-01  6.8609242262882819e-01  6.9096594234484099e-01  6.9542650301189979e-01  6.9947736455899234e-01  7.0312176714611885e-01  7.0636306710982011e-01  7.0920485350857099e-01  7.1165104012542257e-01  7.1370593094688239e-01  7.1537426044522234e-01  7.1666121310820285e-01  7.1757242928857046e-01  7.1811400635866862e-01  7.1829250519877674e-01  7.1811497212730246e-01  7.1758898545044592e-01  7.1672273387059027e-01  7.1552513111753879e-01  7.1400596753001055e-01  7.1217609522212322e-01  7.1004763934068871e-01  7.0763422420690136e-01  7.0495120019621649e-01  7.0201585517826359e-01  6.9884759307893329e-01  6.9546806128775085e-01  6.9190120778900366e-01  6.8817324771942845e-01  6.8431251747835631e-01  6.8034919279733186e-01  6.7631484581252221e-01  6.7224181555807028e-01  6.6816236609467927e-01  6.6410760516548706e-01  6.6010613110679139e-01  6.5618236365321592e-01  6.5235449296004377e-01  6.4863194957100212e-01  6.4501225566355991e-01  6.4147706311853292e-01  6.3798711247730766e-01  6.3447575022250746e-01  6.3084050583339013e-01  6.2693203200130498e-01  6.2253941497521414e-01  6.1737040787071540e-01  6.1102442616094754e-01  6.0295498733109865e-01  5.9241632574267222e-01  5.7838547117635897e-01  5.5944466933069059e-01  5.3359630213255627e-01  4.9795542811002719e-01  4.4820448881901631e-01  3.7756777570442812e-01  2.7514902828414278e-01  1.4237172979226365e-01  0.0000000000000000e+00  2.6699530634143837e-02  5.2791236770956651e-02  7.8285013603920275e-02  1.0319172348474165e-01  1.2752318930639378e-01  1.5129210429066178e-01  1.7451176893427611e-01  1.9719568481441732e-01  2.1935706935995100e-01  2.4100835179607472e-01  2.6216070173259187e-01  2.8282363253975729e-01  3.0300470777385863e-01  3.2270936243463694e-01  3.4194083767459987e-01  3.6070022111525518e-01  3.7898658397021545e-01  3.9679720715571209e-01  4.1412788817626267e-01  4.3097331710337061e-01  4.4732750367730539e-01  4.6318423051169283e-01  4.7853750257283773e-01  4.9338196295534048e-01  5.0771324989074829e-01  5.2152827810522195e-01  5.3482543626720236e-01  5.4760469910252541e-01  5.5986765702525232e-01  5.7161746837219229e-01  5.8285874070342014e-01  5.9359734927578878e-01  6.0384020338213118e-01  6.1359497474274072e-01  6.2286980576224660e-01  6.3167301796274877e-01  6.4001284109072465e-01  6.4789718079261660e-01  6.5533343786870346e-01  6.6232838616390421e-01  6.6888811043926255e-01  6.7501800093654662e-01  6.8072279803514324e-01  6.8600667821357408e-01  6.9087337115379699e-01  6.9532629705087456e-01  6.9936871297089798e-01  7.0300385751829453e-01  7.0623508423607662e-01  7.0906597610247513e-01  7.1150043610933555e-01  7.1354275198741390e-01  7.1519763637353928e-01  7.1647024676735460e-01  7.1736619220962872e-01  7.1789153550466478e-01  7.1805280085157330e-01  7.1785699684851323e-01  7.1731166394343393e-01  7.1642495352463120e-01  7.1520574304179163e-01  7.1366378799214814e-01  7.1180990759517637e-01  7.0965619692630555e-01  7.0721625463554372e-01  7.0450541249948928e-01  7.0154095108969261e-01  6.9834228466639969e-01  6.9493109769222572e-01  6.9133141469948856e-01  6.8756958432778603e-01  6.8367415710465784e-01  6.7967563520487517e-01  6.7560607144050044e-01  6.7149849444915666e-01  6.6738613718567030e-01  6.6330144502535371e-01  6.5927483564606648e-01  6.5533317263534974e-01  6.5149789643586109e-01  6.4778272897159872e-01  6.4419083193111781e-01  6.4071125242906490e-01  6.3731443084546890e-01  6.3394646829318657e-01  6.3052174582120657e-01  6.2691333968773666e-01  6.2294046593057595e-01  6.1835188321830792e-01  6.1280374305523566e-01  6.0582974128372369e-01  5.9680052215761525e-01  5.8486807976800470e-01  5.6888961500122448e-01  5.4732536016503963e-01  5.1811304571887928e-01  4.7857018636699805e-01  4.2563092622688919e-01  3.5812328823959977e-01  2.8184285212220994e-01  0.0000000000000000e+00  2.6681350079226628e-02  5.2759110366295069e-02  7.8242780368486087e-02  1.0314276482846006e-01  1.2747040063292220e-01  1.5123788154772153e-01  1.7445800048402249e-01  1.9714375043383722e-01  2.1930785304049158e-01  2.4096227302751097e-01  2.6211776520567182e-01  2.8278349221239540e-01  3.0296673951785685e-01  3.2267273984734968e-01  3.4190460708461240e-01  3.6066337326522657e-01  3.7894812069727707e-01  3.9675620150404789e-01  4.1408353602308279e-01  4.3092497798766016e-01  4.4727472852695682e-01  4.6312677463415169e-01  4.7847532355213224e-01  4.9331520461114531e-01  5.0764221471404547e-01  5.2145339125917700e-01  5.3474720430178380e-01  5.4752366618672721e-01  5.5978436102651241e-01  5.7153239870663153e-01  5.8277229961472032e-01  5.9350981804218039e-01  6.0375171480942502e-01  6.1350549307527880e-01  6.2277911476432624e-01  6.3158071738740584e-01  6.3991835113119766e-01  6.4779975352002750e-01  6.5523217420606295e-01  6.6222225668804557e-01  6.6877597823255674e-01  6.7489864478362183e-01  6.8059493442616315e-01  6.8586898084347447e-01  6.9072448688619070e-01  6.9516485764532965e-01  6.9919334224569740e-01  7.0281317401412990e-01  7.0602769982031799e-01  7.0884049126368620e-01  7.1125543289983351e-01  7.1327678565767894e-01  7.1490922670667212e-01  7.1615786998228037e-01  7.1702827408667613e-01  7.1752644612936578e-01  7.1765885110611838e-01  7.1743243653947342e-01  7.1685468127304963e-01  7.1593367552351128e-01  7.1467823661098429e-01  7.1309806137106913e-01  7.1120391238490555e-01  7.0900783124779820e-01  7.0652336857262166e-01  7.0376581765083013e-01  7.0075243682949517e-01  6.9750264461242584e-01  6.9403817095818687e-01  6.9038314785619270e-01  6.8656412172931602e-01  6.8260996947012587e-01  6.7855169916829106e-01  6.7442211621241843e-01  6.7025533574558482e-01  6.6608612319819149e-01  6.6194904470303639e-01  6.5787740664100169e-01  6.5390195613800939e-01  6.5004930042900311e-01  6.4633998215804722e-01  6.4278612026843029e-01  6.3938849243956475e-01  6.3613289432074516e-01  6.3298556090025471e-01  6.2988737271844197e-01  6.2674649032182816e-01  6.2342896212496690e-01  6.1974673809003300e-01  6.1544241632460495e-01  6.1017001806416782e-01  6.0347131020377143e-01  5.9474816573110412e-01  5.8323450878840188e-01  5.6798021215001337e-01  5.4788419167002911e-01  5.2188288107157155e-01  4.8956671153631742e-01  4.5249719237347108e-01  4.1557185499305199e-01  0.0000000000000000e+00  2.6656150623915856e-02  5.2714553703578644e-02  7.8184136800274626e-02  1.0307467065722441e-01  1.2739682682230102e-01  1.5116211738542326e-01  1.7438264371337583e-01  1.9707070724973955e-01  2.1923835637590894e-01  2.4089692489363704e-01  2.6205660308124684e-01  2.8272607462103733e-01  3.0291224368134895e-01  3.2262006449571878e-01  3.4185247502877353e-01  3.6061042998468462e-01  3.7889302620958171e-01  3.9669771300148771e-01  4.1402057846789903e-01  4.3085669955627826e-01  4.4720053799414555e-01  4.6304635877248390e-01  4.7838864428575162e-01  4.9322247754286436e-01  5.0754387217187891e-01  5.2135003381739520e-01  5.3463954481098230e-01  5.4741246995643522e-01  5.5967038527102808e-01  5.7141633392408619e-01  5.8265471530051061e-01  5.9339111498625130e-01  6.0363208605789453e-01  6.1338489530187201e-01  6.2265725120233939e-01  6.3145703263374886e-01  6.3979203718221345e-01  6.4766976552787348e-01  6.5509725382032713e-01  6.6208096054004961e-01  6.6862670909671051e-01  6.7473968312166643e-01  6.8042446829812386e-01  6.8568513250183194e-01  6.9052533474318711e-01  6.9494845272171391e-01  6.9895771867170131e-01  7.0255635363937174e-01  7.0574769145693173e-01  7.0853528548372369e-01  7.1092299358604349e-01  7.1291503963623948e-01  7.1451605276547081e-01  7.1573108841523359e-01  7.1656563763532433e-01  7.1702563285813437e-01  7.1711745939150884e-01  7.1684798202206845e-01  7.1622459536169603e-01  7.1525530490040046e-01  7.1394884320792285e-01  7.1231482250417910e-01  7.1036392116263780e-01  7.0810809799837926e-01  7.0556082484567728e-01  7.0273732530191513e-01  6.9965480577793082e-01  6.9633266408876671e-01  6.9279266049108379e-01  6.8905903599993379e-01  6.8515856274777920e-01  6.8112051102183846e-01  6.7697651760010702e-01  6.7276034042072796e-01  6.6850748570895269e-01  6.6425469528750347e-01  6.6003928305980042e-01  6.5589830908183244e-01  6.5186757556800001e-01  6.4798042052289639e-01  6.4426627143610804e-01  6.4074890457721079e-01  6.3744433626608565e-01  6.3435825237827137e-01  6.3148286255755381e-01  6.2879304833732619e-01  6.2624166499831380e-01  6.2375386873240291e-01  6.2122040363208186e-01  6.1848996174027326e-01  6.1536115921160295e-01  6.1157563849863605e-01  6.0681592309520749e-01  6.0071621966656030e-01  5.9290399365702884e-01  5.8310914307439154e-01  5.7140743025828511e-01  5.5866945662176393e-01  5.4714935938661713e-01  5.4083421335883153e-01  0.0000000000000000e+00  2.6624297544702521e-02  5.2658190359090258e-02  7.8109862506771377e-02  1.0298828494669600e-01  1.2730329786636699e-01  1.5106556379335029e-01  1.7428632382774306e-01  1.9697702110590537e-01  2.1914886988833826e-01  2.4081242254969479e-01  2.6197716911655849e-01  2.8265119736673688e-01  3.0284093517586558e-01  3.2255098738518656e-01  3.4178407016513207e-01  3.6054103976191371e-01  3.7882100975993616e-01  3.9662154969871383e-01  4.1393895602749781e-01  4.3076858291059034e-01  4.4710521557377070e-01  4.6294346410905879e-01  4.7827815281255492e-01  4.9310468059850332e-01  5.0741933191356448e-01  5.2121952365954349e-01  5.3450398012821543e-01  5.4727283341105970e-01  5.5952765059624965e-01  5.7127139156597428e-01  5.8250830307447177e-01  5.9324375676308971e-01  6.0348404128961297e-01  6.1323612174253095e-01  6.2250738236584779e-01  6.3130537039721712e-01  6.3963755868114847e-01  6.4751114236141838e-01  6.5493288080595746e-01  6.6190899090787403e-01  6.6844509303646937e-01  6.7454620686123301e-01  6.8021679127728008e-01  6.8546082063654368e-01  6.9028188823309000e-01  6.9468332734392957e-01  6.9866834003246725e-01  7.0224012440558314e-01  7.0540199212248567e-01  7.0815746968555260e-01  7.1051037931805872e-01  7.1246489787851641e-01  7.1402559503813656e-01  7.1519745459424022e-01  7.1598588506301286e-01  7.1639672739020888e-01  7.1643626859545484e-01  7.1611127033560440e-01  7.1542902069182990e-01  7.1439741595425132e-01  7.1302507685386163e-01  7.1132150071395106e-01  7.0929724760812141e-01  7.0696415516613764e-01  7.0433557355465459e-01  7.0142660971670623e-01  6.9825436836666721e-01  6.9483817648554902e-01  6.9119977795023102e-01  6.8736348519345536e-01  6.8335627522015807e-01  6.7920781784908679e-01  6.7495042484501788e-01  6.7061890991560469e-01  6.6625035156974799e-01  6.6188375346692274e-01  6.5755959952881637e-01  6.5331930269360583e-01  6.4920454567679642e-01  6.4525650890464470e-01  6.4151497533294211e-01  6.3801729562026710e-01  6.3479719234797505e-01  6.3188338155609858e-01  6.2929799768237149e-01  6.2705483024818587e-01  6.2515742861091284e-01  6.2359722629596459e-01  6.2235201948866170e-01  6.2138548014017880e-01  6.2064902804305433e-01  6.2008856875562779e-01  6.1966073967269797e-01  6.1936702830734880e-01  6.1932004398594875e-01  6.1986339690879355e-01  6.2176729262211394e-01  6.2649436961044858e-01  6.3645402117135075e-01  6.5507789717851861e-01  0.0000000000000000e+00  2.6586330495448767e-02  5.2590953723116757e-02  7.8021153655116707e-02  1.0288495153215237e-01  1.2719120668081754e-01  1.5094958109461029e-01  1.7417030449708243e-01  1.9686381341191633e-01  2.1904034591254393e-01  2.4070954053907809e-01  2.6188006758657295e-01  2.8255931543828527e-01  3.0275315086906968e-01  3.2246576525075510e-01  3.4169961074682048e-01  3.6045542484696325e-01  3.7873233842401893e-01  3.9652806056164497e-01  4.1383913115034771e-01  4.3066122888511943e-01  4.4698951807213261e-01  4.6281901369977113e-01  4.7814494202271196e-01  4.9296307449169008e-01  5.0727001627519475e-01  5.2106343588835136e-01  5.3434222813771859e-01  5.4710660753101137e-01  5.5935813298366865e-01  5.7109966724067796e-01  5.8233527646375904e-01  5.9307007748831098e-01  6.0331004266320654e-01  6.1306177486459779e-01  6.2233226770414440e-01  6.3112866736400086e-01  6.3945805221548735e-01  6.4732724419368071e-01  6.5474266216835231e-01  6.6171022305055294e-01  6.6823529194418052e-01  6.7432267888854236e-01  6.7997667688336993e-01  6.8520113391256499e-01  6.8999955044542149e-01  6.9437519326934094e-01  6.9833121644265161e-01  7.0187078065648312e-01  7.0499716338122320e-01  7.0771385383044794e-01  7.1002462891936480e-01  7.1193360886713586e-01  7.1344529367888576e-01  7.1456458420782254e-01  7.1529679361799736e-01  7.1564765665990870e-01  7.1562334510101500e-01  7.1523049783792014e-01  7.1447627361767518e-01  7.1336843291628849e-01  7.1191545341968010e-01  7.1012668085568409e-01  7.0801251385743591e-01  7.0558461840935982e-01  7.0285616459196421e-01  6.9984207611846927e-01  6.9655928173825465e-01  6.9302695699006445e-01  6.8926674489035511e-01  6.8530294473786801e-01  6.8116265914122209e-01  6.7687589059263142e-01  6.7247558052842094e-01  6.6799758604178117e-01  6.6348059241153534e-01  6.5896596333531632e-01  6.5449753482961126e-01  6.5012136254343356e-01  6.4588543513414787e-01  6.4183936827998123e-01  6.3803409563770375e-01  6.3452157639278162e-01  6.3135454675412062e-01  6.2858635857963319e-01  6.2627097752153493e-01  6.2446326361555993e-01  6.2321974219692200e-01  6.2260021462707338e-01  6.2267079384017443e-01  6.2350933923463314e-01  6.2521490017963410e-01  6.2792378406413596e-01  6.3183638472007020e-01  6.3726097353608857e-01  6.4468275996021296e-01  6.5486653538268846e-01  6.6899398097097640e-01  6.8881582540700448e-01  7.1676710350466011e-01  7.5597536514673225e-01  0.0000000000000000e+00  2.6542951689973813e-02  5.2514068072236936e-02  7.7919597097226886e-02  1.0276648090044257e-01  1.2706246869784921e-01  1.5081609113496530e-01  1.7403643601008087e-01  1.9673280602855620e-01  2.1891434212799013e-01  2.4058965675161489e-01  2.6176649906239713e-01  2.8245146967409451e-01  3.0264980105343853e-01  3.2236521492564896e-01  3.4159986153573185e-01  3.6035434030668390e-01  3.7862779801464003e-01  3.9641809819240098e-01  4.1372205295071252e-01  4.3053570521348000e-01  4.4685464573642319e-01  4.6267434609963759e-01  4.7799048722888759e-01  4.9279926365657811e-01  5.0709764667545343e-01  5.2088359401183060e-01  5.3415619855198326e-01  5.4691577306913708e-01  5.5916387138590817e-01  5.7090324903984713e-01  5.8213776867378464e-01  5.9287225746262961e-01  6.0311232614218213e-01  6.1286416153017831e-01  6.2213430640641532e-01  6.3092944165423970e-01  6.3925618516035498e-01  6.4712091997551890e-01  6.5452966095380716e-01  6.6148796513178032e-01  6.6800088715961248e-01  6.7407297765925367e-01  6.7970831969990997e-01  6.8491059667170451e-01  6.8968318362336045e-01  6.9402925352242539e-01  6.9795188985100043e-01  7.0145419745799931e-01  7.0453940464876486e-01  7.0721095107223908e-01  7.0947255797756048e-01  7.1132827970906853e-01  7.1278253769947997e-01  7.1384014049571087e-01  7.1450629531136023e-01  7.1478661807800714e-01  7.1468714984227422e-01  7.1421438755114364e-01  7.1337533675110243e-01  7.1217759250576429e-01  7.1062945296858027e-01  7.0874006765239783e-01  7.0651961971384092e-01  7.0397953879036312e-01  7.0113273840470258e-01  6.9799386997569801e-01  6.9457958424243427e-01  6.9090879047969556e-01  6.8700290418819276e-01  6.8288607484792740e-01  6.7858538671085689e-01  6.7413102745225606e-01  6.6955642188395970e-01  6.6489833101609275e-01  6.6019692067562363e-01  6.5549580865565549e-01  6.5084210479039384e-01  6.4628646411630297e-01  6.4188317919259508e-01  6.3769034396584501e-01  6.3377012927433085e-01  6.3018922110340825e-01  6.2701948988211842e-01  6.2433898637098817e-01  6.2223340240296932e-01  6.2079820062038715e-01  6.2014171800539830e-01  6.2038970109000546e-01  6.2169196217793776e-01  6.2423219036647049e-01  6.2824244686177211e-01  6.3402454420100995e-01  6.4198131125647273e-01  6.5266144985321273e-01  6.6682162297294945e-01  6.8550714239723742e-01  7.1014612398124255e-01  7.4264057774002534e-01  7.8542611872205204e-01  8.4147098480789650e-01  0.0000000000000000e+00  2.6495007248386205e-02  5.2429014727896926e-02  7.7807122936226769e-02  1.0263509036011216e-01  1.2691945112105540e-01  1.5066749751066155e-01  1.7388706866208403e-01  1.9658623012045481e-01  2.1877292809724289e-01  2.4045465859573834e-01  2.6163816774926124e-01  2.8232919631801018e-01  3.0253228182038505e-01  3.2225062879098682e-01  3.4148605239727375e-01  3.6023899581040858e-01  3.7850861821928189e-01  3.9629294768452450e-01  4.1358909038136427e-01  4.3039348482278961e-01  4.467021866