<?xml version="1.0"?>
<VTKFile type="UnstructuredGrid"  version="0.1"  >
<UnstructuredGrid>
<Piece  NumberOfPoints="20201" NumberOfCells="40000">
<Points>
<DataArray  type="Float64"  NumberOfComponents="3"  format="ascii">0 0 0  1 0 0  2 0 0  3 0 0  4 0 0  5 0 0  6 0 0  7 0 0  8 0 0  9 0 0  10 0 0  11 0 0  12 0 0  13 0 0  14 0 0  15 0 0  16 0 0  17 0 0  18 0 0  19 0 0  20 0 0  21 0 0  22 0 0  23 0 0  24 0 0  25 0 0  26 0 0  27 0 0  28 0 0  29 0 0  30 0 0  31 0 0  32 0 0  33 0 0  34 0 0  35 0 0  36 0 0  37 0 0  38 0 0  39 0 0  40 0 0  41 0 0  42 0 0  43 0 0  44 0 0  45 0 0  46 0 0  47 0 0  48 0 0  49 0 0  50 0 0  51 0 0  52 0 0  53 0 0  54 0 0  55 0 0  56 0 0  57 0 0  58 0 0  59 0 0  60 0 0  61 0 0  62 0 0  63 0 0  64 0 0  65 0 0  66 0 0  67 0 0  68 0 0  69 0 0  70 0 0  71 0 0  72 0 0  73 0 0  74 0 0  75 0 0  76 0 0  77 0 0  78 0 0  79 0 0  80 0 0  81 0 0  82 0 0  83 0 0  84 0 0  85 0 0  86 0 0  87 0 0  88 0 0  89 0 0  90 0 0  91 0 0  92 0 0  93 0 0  94 0 0  95 0 0  96 0 0  97 0 0  98 0 0  99 0 0  100 0 0  0 1 0  1 1 0  2 1 0  3 1 0  4 1 0  5 1 0  6 1 0  7 1 0  8 1 0  9 1 0  10 1 0  11 1 0  12 1 0  13 1 0  14 1 0  15 1 0  16 1 0  17 1 0  18 1 0  19 1 0  20 1 0  21 1 0  22 1 0  23 1 0  24 1 0  25 1 0  26 1 0  27 1 0  28 1 0  29 1 0  30 1 0  31 1 0  32 1 0  33 1 0  34 1 0  35 1 0  36 1 0  37 1 0  38 1 0  39 1 0  40 1 0  41 1 0  42 1 0  43 1 0  44 1 0  45 1 0  46 1 0  47 1 0  48 1 0  49 1 0  50 1 0  51 1 0  52 1 0  53 1 0  54 1 0  55 1 0  56 1 0  57 1 0  58 1 0  59 1 0  60 1 0  61 1 0  62 1 0  63 1 0  64 1 0  65 1 0  66 1 0  67 1 0  68 1 0  69 1 0  70 1 0  71 1 0  72 1 0  73 1 0  74 1 0  75 1 0  76 1 0  77 1 0  78 1 0  79 1 0  80 1 0  81 1 0  82 1 0  83 1 0  84 1 0  85 1 0  86 1 0  87 1 0  88 1 0  89 1 0  90 1 0  91 1 0  92 1 0  93 1 0  94 1 0  95 1 0  96 1 0  97 1 0  98 1 0  99 1 0  100 1 0  0 2 0  1 2 0  2 2 0  3 2 0  4 2 0  5 2 0  6 2 0  7 2 0  8 2 0  9 2 0  10 2 0  11 2 0  12 2 0  13 2 0  14 2 0  15 2 0  16 2 0  17 2 0  18 2 0  19 2 0  20 2 0  21 2 0  22 2 0  23 2 0  24 2 0  25 2 0  26 2 0  27 2 0  28 2 0  29 2 0  30 2 0  31 2 0  32 2 0  33 2 0  34 2 0  35 2 0  36 2 0  37 2 0  38 2 0  39 2 0  40 2 0  41 2 0  42 2 0  43 2 0  44 2 0  45 2 0  46 2 0  47 2 0  48 2 0  49 2 0  50 2 0  51 2 0  52 2 0  53 2 0  54 2 0  55 2 0  56 2 0  57 2 0  58 2 0  59 2 0  60 2 0  61 2 0  62 2 0  63 2 0  64 2 0  65 2 0  66 2 0  67 2 0  68 2 0  69 2 0  70 2 0  71 2 0  72 2 0  73 2 0  74 2 0  75 2 0  76 2 0  77 2 0  78 2 0  79 2 0  80 2 0  81 2 0  82 2 0  83 2 0  84 2 0  85 2 0  86 2 0  87 2 0  88 2 0  89 2 0  90 2 0  91 2 0  92 2 0  93 2 0  94 2 0  95 2 0  96 2 0  97 2 0  98 2 0  99 2 0  100 2 0  0 3 0  1 3 0  2 3 0  3 3 0  4 3 0  5 3 0  6 3 0  7 3 0  8 3 0  9 3 0  10 3 0  11 3 0  12 3 0  13 3 0  14 3 0  15 3 0  16 3 0  17 3 0  18 3 0  19 3 0  20 3 0  21 3 0  22 3 0  23 3 0  24 3 0  25 3 0  26 3 0  27 3 0  28 3 0  29 3 0  30 3 0  31 3 0  32 3 0  33 3 0  34 3 0  35 3 0  36 3 0  37 3 0  38 3 0  39 3 0  40 3 0  41 3 0  42 3 0  43 3 0  44 3 0  45 3 0  46 3 0  47 3 0  48 3 0  49 3 0  50 3 0  51 3 0  52 3 0  53 3 0  54 3 0  55 3 0  56 3 0  57 3 0  58 3 0  59 3 0  60 3 0  61 3 0  62 3 0  63 3 0  64 3 0  65 3 0  66 3 0  67 3 0  68 3 0  69 3 0  70 3 0  71 3 0  72 3 0  73 3 0  74 3 0  75 3 0  76 3 0  77 3 0  78 3 0  79 3 0  80 3 0  81 3 0  82 3 0  83 3 0  84 3 0  85 3 0  86 3 0  87 3 0  88 3 0  89 3 0  90 3 0  91 3 0  92 3 0  93 3 0  94 3 0  95 3 0  96 3 0  97 3 0  98 3 0  99 3 0  100 3 0  0 4 0  1 4 0  2 4 0  3 4 0  4 4 0  5 4 0  6 4 0  7 4 0  8 4 0  9 4 0  10 4 0  11 4 0  12 4 0  13 4 0  14 4 0  15 4 0  16 4 0  17 4 0  18 4 0  19 4 0  20 4 0  21 4 0  22 4 0  23 4 0  24 4 0  25 4 0  26 4 0  27 4 0  28 4 0  29 4 0  30 4 0  31 4 0  32 4 0  33 4 0  34 4 0  35 4 0  36 4 0  37 4 0  38 4 0  39 4 0  40 4 0  41 4 0  42 4 0  43 4 0  44 4 0  45 4 0  46 4 0  47 4 0  48 4 0  49 4 0  50 4 0  51 4 0  52 4 0  53 4 0  54 4 0  55 4 0  56 4 0  57 4 0  58 4 0  59 4 0  60 4 0  61 4 0  62 4 0  63 4 0  64 4 0  65 4 0  66 4 0  67 4 0  68 4 0  69 4 0  70 4 0  71 4 0  72 4 0  73 4 0  74 4 0  75 4 0  76 4 0  77 4 0  78 4 0  79 4 0  80 4 0  81 4 0  82 4 0  83 4 0  84 4 0  85 4 0  86 4 0  87 4 0  88 4 0  89 4 0  90 4 0  91 4 0  92 4 0  93 4 0  94 4 0  95 4 0  96 4 0  97 4 0  98 4 0  99 4 0  100 4 0  0 5 0  1 5 0  2 5 0  3 5 0  4 5 0  5 5 0  6 5 0  7 5 0  8 5 0  9 5 0  10 5 0  11 5 0  12 5 0  13 5 0  14 5 0  15 5 0  16 5 0  17 5 0  18 5 0  19 5 0  20 5 0  21 5 0  22 5 0  23 5 0  24 5 0  25 5 0  26 5 0  27 5 0  28 5 0  29 5 0  30 5 0  31 5 0  32 5 0  33 5 0  34 5 0  35 5 0  36 5 0  37 5 0  38 5 0  39 5 0  40 5 0  41 5 0  42 5 0  43 5 0  44 5 0  45 5 0  46 5 0  47 5 0  48 5 0  49 5 0  50 5 0  51 5 0  52 5 0  53 5 0  54 5 0  55 5 0  56 5 0  57 5 0  58 5 0  59 5 0  60 5 0  61 5 0  62 5 0  63 5 0  64 5 0  65 5 0  66 5 0  67 5 0  68 5 0  69 5 0  70 5 0  71 5 0  72 5 0  73 5 0  74 5 0  75 5 0  76 5 0  77 5 0  78 5 0  79 5 0  80 5 0  81 5 0  82 5 0  83 5 0  84 5 0  85 5 0  86 5 0  87 5 0  88 5 0  89 5 0  90 5 0  91 5 0  92 5 0  93 5 0  94 5 0  95 5 0  96 5 0  97 5 0  98 5 0  99 5 0  100 5 0  0 6 0  1 6 0  2 6 0  3 6 0  4 6 0  5 6 0  6 6 0  7 6 0  8 6 0  9 6 0  10 6 0  11 6 0  12 6 0  13 6 0  14 6 0  15 6 0  16 6 0  17 6 0  18 6 0  19 6 0  20 6 0  21 6 0  22 6 0  23 6 0  24 6 0  25 6 0  26 6 0  27 6 0  28 6 0  29 6 0  30 6 0  31 6 0  32 6 0  33 6 0  34 6 0  35 6 0  36 6 0  37 6 0  38 6 0  39 6 0  40 6 0  41 6 0  42 6 0  43 6 0  44 6 0  45 6 0  46 6 0  47 6 0  48 6 0  49 6 0  50 6 0  51 6 0  52 6 0  53 6 0  54 6 0  55 6 0  56 6 0  57 6 0  58 6 0  59 6 0  60 6 0  61 6 0  62 6 0  63 6 0  64 6 0  65 6 0  66 6 0  67 6 0  68 6 0  69 6 0  70 6 0  71 6 0  72 6 0  73 6 0  74 6 0  75 6 0  76 6 0  77 6 0  78 6 0  79 6 0  80 6 0  81 6 0  82 6 0  83 6 0  84 6 0  85 6 0  86 6 0  87 6 0  88 6 0  89 6 0  90 6 0  91 6 0  92 6 0  93 6 0  94 6 0  95 6 0  96 6 0  97 6 0  98 6 0  99 6 0  100 6 0  0 7 0  1 7 0  2 7 0  3 7 0  4 7 0  5 7 0  6 7 0  7 7 0  8 7 0  9 7 0  10 7 0  11 7 0  12 7 0  13 7 0  14 7 0  15 7 0  16 7 0  17 7 0  18 7 0  19 7 0  20 7 0  21 7 0  22 7 0  23 7 0  24 7 0  25 7 0  26 7 0  27 7 0  28 7 0  29 7 0  30 7 0  31 7 0  32 7 0  33 7 0  34 7 0  35 7 0  36 7 0  37 7 0  38 7 0  39 7 0  40 7 0  41 7 0  42 7 0  43 7 0  44 7 0  45 7 0  46 7 0  47 7 0  48 7 0  49 7 0  50 7 0  51 7 0  52 7 0  53 7 0  54 7 0  55 7 0  56 7 0  57 7 0  58 7 0  59 7 0  60 7 0  61 7 0  62 7 0  63 7 0  64 7 0  65 7 0  66 7 0  67 7 0  68 7 0  69 7 0  70 7 0  71 7 0  72 7 0  73 7 0  74 7 0  75 7 0  76 7 0  77 7 0  78 7 0  79 7 0  80 7 0  81 7 0  82 7 0  83 7 0  84 7 0  85 7 0  86 7 0  87 7 0  88 7 0  89 7 0  90 7 0  91 7 0  92 7 0  93 7 0  94 7 0  95 7 0  96 7 0  97 7 0  98 7 0  99 7 0  100 7 0  0 8 0  1 8 0  2 8 0  3 8 0  4 8 0  5 8 0  6 8 0  7 8 0  8 8 0  9 8 0  10 8 0  11 8 0  12 8 0  13 8 0  14 8 0  15 8 0  16 8 0  17 8 0  18 8 0  19 8 0  20 8 0  21 8 0  22 8 0  23 8 0  24 8 0  25 8 0  26 8 0  27 8 0  28 8 0  29 8 0  30 8 0  31 8 0  32 8 0  33 8 0  34 8 0  35 8 0  36 8 0  37 8 0  38 8 0  39 8 0  40 8 0  41 8 0  42 8 0  43 8 0  44 8 0  45 8 0  46 8 0  47 8 0  48 8 0  49 8 0  50 8 0  51 8 0  52 8 0  53 8 0  54 8 0  55 8 0  56 8 0  57 8 0  58 8 0  59 8 0  60 8 0  61 8 0  62 8 0  63 8 0  64 8 0  65 8 0  66 8 0  67 8 0  68 8 0  69 8 0  70 8 0  71 8 0  72 8 0  73 8 0  74 8 0  75 8 0  76 8 0  77 8 0  78 8 0  79 8 0  80 8 0  81 8 0  82 8 0  83 8 0  84 8 0  85 8 0  86 8 0  87 8 0  88 8 0  89 8 0  90 8 0  91 8 0  92 8 0  93 8 0  94 8 0  95 8 0  96 8 0  97 8 0  98 8 0  99 8 0  100 8 0  0 9 0  1 9 0  2 9 0  3 9 0  4 9 0  5 9 0  6 9 0  7 9 0  8 9 0  9 9 0  10 9 0  11 9 0  12 9 0  13 9 0  14 9 0  15 9 0  16 9 0  17 9 0  18 9 0  19 9 0  20 9 0  21 9 0  22 9 0  23 9 0  24 9 0  25 9 0  26 9 0  27 9 0  28 9 0  29 9 0  30 9 0  31 9 0  32 9 0  33 9 0  34 9 0  35 9 0  36 9 0  37 9 0  38 9 0  39 9 0  40 9 0  41 9 0  42 9 0  43 9 0  44 9 0  45 9 0  46 9 0  47 9 0  48 9 0  49 9 0  50 9 0  51 9 0  52 9 0  53 9 0  54 9 0  55 9 0  56 9 0  57 9 0  58 9 0  59 9 0  60 9 0  61 9 0  62 9 0  63 9 0  64 9 0  65 9 0  66 9 0  67 9 0  68 9 0  69 9 0  70 9 0  71 9 0  72 9 0  73 9 0  74 9 0  75 9 0  76 9 0  77 9 0  78 9 0  79 9 0  80 9 0  81 9 0  82 9 0  83 9 0  84 9 0  85 9 0  86 9 0  87 9 0  88 9 0  89 9 0  90 9 0  91 9 0  92 9 0  93 9 0  94 9 0  95 9 0  96 9 0  97 9 0  98 9 0  99 9 0  100 9 0  0 10 0  1 10 0  2 10 0  3 10 0  4 10 0  5 10 0  6 10 0  7 10 0  8 10 0  9 10 0  10 10 0  11 10 0  12 10 0  13 10 0  14 10 0  15 10 0  16 10 0  17 10 0  18 10 0  19 10 0  20 10 0  21 10 0  22 10 0  23 10 0  24 10 0  25 10 0  26 10 0  27 10 0  28 10 0  29 10 0  30 10 0  31 10 0  32 10 0  33 10 0  34 10 0  35 10 0  36 10 0  37 10 0  38 10 0  39 10 0  40 10 0  41 10 0  42 10 0  43 10 0  44 10 0  45 10 0  46 10 0  47 10 0  48 10 0  49 10 0  50 10 0  51 10 0  52 10 0  53 10 0  54 10 0  55 10 0  56 10 0  57 10 0  58 10 0  59 10 0  60 10 0  61 10 0  62 10 0  63 10 0  64 10 0  65 10 0  66 10 0  67 10 0  68 10 0  69 10 0  70 10 0  71 10 0  72 10 0  73 10 0  74 10 0  75 10 0  76 10 0  77 10 0  78 10 0  79 10 0  80 10 0  81 10 0  82 10 0  83 10 0  84 10 0  85 10 0  86 10 0  87 10 0  88 10 0  89 10 0  90 10 0  91 10 0  92 10 0  93 10 0  94 10 0  95 10 0  96 10 0  97 10 0  98 10 0  99 10 0  100 10 0  0 11 0  1 11 0  2 11 0  3 11 0  4 11 0  5 11 0  6 11 0  7 11 0  8 11 0  9 11 0  10 11 0  11 11 0  12 11 0  13 11 0  14 11 0  15 11 0  16 11 0  17 11 0  18 11 0  19 11 0  20 11 0  21 11 0  22 11 0  23 11 0  24 11 0  25 11 0  26 11 0  27 11 0  28 11 0  29 11 0  30 11 0  31 11 0  32 11 0  33 11 0  34 11 0  35 11 0  36 11 0  37 11 0  38 11 0  39 11 0  40 11 0  41 11 0  42 11 0  43 11 0  44 11 0  45 11 0  46 11 0  47 11 0  48 11 0  49 11 0  50 11 0  51 11 0  52 11 0  53 11 0  54 11 0  55 11 0  56 11 0  57 11 0  58 11 0  59 11 0  60 11 0  61 11 0  62 11 0  63 11 0  64 11 0  65 11 0  66 11 0  67 11 0  68 11 0  69 11 0  70 11 0  71 11 0  72 11 0  73 11 0  74 11 0  75 11 0  76 11 0  77 11 0  78 11 0  79 11 0  80 11 0  81 11 0  82 11 0  83 11 0  84 11 0  85 11 0  86 11 0  87 11 0  88 11 0  89 11 0  90 11 0  91 11 0  92 11 0  93 11 0  94 11 0  95 11 0  96 11 0  97 11 0  98 11 0  99 11 0
[...]
<PointData  Scalars="f_3357-2"> 
<DataArray  type="Float64"  Name="f_3357-2"  format="ascii">0.0000000000000000e+00  2.6745395303578529e-02  5.2871779269727241e-02  7.8387465921024024e-02  1.0330145501034371e-01  1.2762336837728402e-01  1.5136376063098395e-01  1.7453471301626375e-01  1.9715050712396023e-01  2.1922800822976743e-01  2.4078630074046847e-01  2.6184531843089803e-01  2.8242373619594863e-01  3.0253687415448582e-01  3.2219534216260121e-01  3.4140465200013975e-01  3.6016553801826001e-01  3.7847459769457803e-01  3.9632502331786368e-01  4.1370740528786593e-01  4.3061067754541743e-01  4.4702321172624487e-01  4.6293392905360442e-01  4.7833321795240691e-01  4.9321349467064268e-01  5.0756938222790104e-01  5.2139760905069366e-01  5.3469677984572705e-01  5.4746715285807035e-01  5.5971050655748855e-01  5.7143012399065851e-01  5.8263087465613939e-01  5.9331933169227602e-01  6.0350382857707174e-01  6.1319434668795947e-01  6.2240215258783760e-01  6.3113918149518333e-01  6.3941726820045131e-01  6.4724740281539084e-01  6.5463918582488889e-01  6.6160057605755196e-01  6.6813791910941400e-01  6.7425617008889505e-01  6.7995920558218170e-01  6.8525014205779733e-01  6.9013161568770964e-01  6.9460601194948146e-01  6.9867565349851191e-01  7.0234296091397130e-01  7.0561059658396086e-01  7.0848159249300335e-01  7.1095945345014055e-01  7.1304822271610635e-01  7.1475249933905860e-01  7.1607740549145493e-01  7.1702851506206300e-01  7.1761176754758016e-01  7.1783339945682922e-01  7.1769992553630435e-01  7.1721819295456268e-01  7.1639551507070087e-01  7.1523987245866472e-01  7.1376015373653534e-01  7.1196640249114174e-01  7.0987004079460003e-01  7.0748405228172839e-01  7.0482312404405278e-01  7.0190376210122041e-01  6.9874440628268908e-01  6.9536557380929509e-01  6.9179005266740468e-01  6.8804314048769655e-01  6.8415287728187768e-01  6.8015015448245875e-01  6.7606852180862842e-01  6.7194350537365688e-01  6.6781134034451106e-01  6.6370719225819197e-01  6.5966308482583613e-01  6.5570574664124415e-01  6.5185442147332862e-01  6.4811846461574019e-01  6.4449438624151112e-01  6.4096193497367537e-01  6.3747880662574208e-01  6.3397356819030304e-01  6.3033637122577579e-01  6.2640694673429165e-01  6.2195912410120047e-01  6.1668052436043619e-01  6.1014496435725640e-01  6.0177338041038342e-01  5.9077655483304603e-01  5.7606872422744171e-01  5.5613274349148267e-01  5.2879869158857939e-01  4.9085153319026692e-01  4.3725175200761396e-01  3.5928334677167817e-01  2.3848521048198973e-01  0.0000000000000000e+00  0.0000000000000000e+00  2.6742387674214763e-02  5.2866201209829655e-02  7.8379782404040518e-02  1.0329215683630723e-01  1.2761296678759826e-01  1.5135277718273488e-01  1.7452366137223252e-01  1.9713986283444415e-01  2.1921816606241554e-01  2.4077752763793880e-01  2.6183771884090307e-01  2.8241724564100640e-01  3.0253128354364883e-01  3.2219034053896106e-01  3.4139987169669905e-01  3.6016059310059312e-01  3.7846911499819447e-01  3.9631866903492668e-01  4.1369990854519895e-01  4.3060184868603835e-01  4.4701295076288627e-01  4.6292222128038790e-01  4.7832011806614150e-01  4.9319910465155242e-01  5.0755382914038716e-01  5.2138102708977341e-01  5.3467929827944993e-01  5.4744888952666826e-01  5.5969156565805178e-01  5.7141059663051141e-01  5.8261084059567070e-01  5.9329886053809189e-01  6.0348297851496802e-01  6.1317315910389081e-01  6.2238064212044775e-01  6.3111732316027824e-01  6.3939498522079019e-01  6.4722455924034872e-01  6.5461558640037987e-01  6.6157597312758276e-01  6.6811202424349836e-01  6.7422866751470323e-01  6.7992976509931746e-01  6.8521843013639216e-01  6.9009730429706106e-01  6.9456878509591369e-01  6.9863521155391684e-01  7.0229902278176848e-01  7.0556289975409825e-01  7.0842989116401101e-01  7.1090351511127681e-01  7.1298782377283143e-01  7.1468742040848876e-01  7.1600742683525298e-01  7.1695341231192755e-01  7.1753130755433348e-01  7.1774733593038820e-01  7.1760799425803767e-01  7.1712010672234050e-01  7.1629095901764361e-01  7.1512850072985223e-01  7.1364158853590287e-01  7.1184023621776660e-01  7.0973584153352565e-01  7.0734137250490381e-01  7.0467151212757684e-01  7.0174277615025871e-01  6.9857362966130365e-01  6.9518463160944466e-01  6.9159862818010853e-01  6.8784099088660589e-01  6.8393984883646397e-01  6.7992620042695906e-01  6.7583373060368801e-01  6.7169815190489446e-01  6.6755597432551039e-01  6.6344277446168276e-01  6.5939117497122479e-01  6.5542874280116037e-01  6.5157585399165163e-01  6.4784335690651706e-01  6.4422970712108540e-01  6.4071718078963202e-01  6.3726676789285563e-01  6.3381135828084301e-01  6.3024682843467916e-01  6.2642057151993980e-01  6.2211679074264403e-01  6.1703733493125024e-01  6.1077584843953503e-01  6.0278149889507238e-01  5.9230646602264325e-01  5.7832813066015998e-01  5.5943080696664238e-01  5.3361930632292498e-01  4.9800960893287494e-01  4.4828151327905369e-01  3.7765169901444945e-01  2.7521183421165041e-01  1.4237172979226365e-01  0.0000000000000000e+00  2.6733341028114855e-02  5.2849423467834222e-02  7.8356673487780346e-02  1.0326419320233504e-01  1.2758168386807181e-01  1.5131973804715534e-01  1.7449040170681746e-01  1.9710780092647545e-01  2.1918847689116899e-01  2.4075100496512009e-01  2.6181467402123720e-01  2.8239748908242351e-01  3.0251419618147507e-01  3.2217499991980475e-01  3.4138518612334062e-01  3.6014541679294482e-01  3.7845234148891543e-01  3.9629931074047592e-01  4.1367716635422652e-01  4.3057516497177617e-01  4.4698203310962353e-01  4.6288702878106097e-01  4.7828081452288962e-01  4.9315599397770943e-01  5.0750729069922096e-01  5.2133146337830860e-01  5.3462709967286604e-01  5.4739441505362629e-01  5.5963513604339121e-01  5.7135249508318209e-01  5.8255131662773774e-01  5.9323813170859030e-01  6.0342122468111059e-01  6.1311050478396556e-01  6.2231712625733993e-01  6.3105286160512786e-01  6.3932933661982305e-01  6.4715730573998842e-01  6.5454613553239827e-01  6.6150357956395989e-01  6.6803582443945331e-01  6.7414771883826630e-01  6.7984308295290474e-01  6.8512501956751271e-01  6.8999618497392345e-01  6.9445900971614993e-01  6.9851587800280590e-01  7.0216928021855562e-01  7.0542194878345699e-01  7.0827697858203642e-01  7.1073792431743577e-01  7.1280886249374931e-01  7.1449440753221949e-01  7.1579967972561631e-01  7.1673023507713107e-01  7.1729197977107351e-01  7.1749110077647693e-01  7.1733404525641542e-01  7.1682757335841829e-01  7.1597889292742734e-01  7.1479586527201311e-01  7.1328725479167709e-01  7.1146298772371186e-01  7.0933438876453070e-01  7.0691437688906456e-01  7.0421761856592069e-01  7.0126065260396053e-01  6.9806201205683949e-01  6.9464237184890187e-01  6.9102474259804292e-01  6.8723470698198930e-01  6.8330065131545559e-01  6.7925388557326305e-01  6.7512849102418748e-01  6.7096072737654189e-01  6.6678790975160540e-01  6.6264681633433709e-01  6.5857181894340033e-01  6.5459293342466118e-01  6.5073384578035454e-01  6.4700977207946453e-01  6.4342486058835169e-01  6.3996878236693022e-01  6.3661215904077739e-01  6.3330050530351611e-01  6.2994638802049141e-01  6.2641948264156233e-01  6.2253405602359002e-01  6.1803299871584427e-01  6.1256680188863610e-01  6.0566492320759424e-01  5.9669599423855257e-01  5.8481232125717564e-01  5.6887313107599968e-01  5.4734119763982614e-01  5.1815564157870575e-01  4.7863233338191469e-01  4.2569938766530790e-01  3.5817480565541815e-01  2.8184285212220994e-01  0.0000000000000000e+00  2.6718181106326490e-02  5.2821313316250597e-02  7.8317965919768362e-02  1.0321736461642080e-01  1.2752930059153375e-01  1.5126440111339137e-01  1.7443465391029978e-01  1.9705397879634173e-01  2.1913850754369205e-01  2.4070618666484275e-01  2.6177551694101675e-01  2.8236368744243873e-01  3.0248474329671454e-01  3.2214839164520692e-01  3.4135963993964175e-01  3.6011906267245530e-01  3.7842337790087449e-01  3.9626613626985979e-01  4.1363849191225849e-01  4.3053009649377177e-01  4.4693010626005092e-01  4.6282818474915965e-01  4.7821532485820278e-01  4.9308435851591792e-01  5.0743013584460495e-01  5.2124945969573377e-01  5.3454090593440462e-01  5.4730464698566383e-01  5.5954235365282601e-01  5.7125720111939327e-01  5.8245395842315462e-01  5.9313909828793665e-01  6.0332083116061508e-01  6.1300895852695503e-01  6.2221447561367149e-01  6.3094893719251699e-01  6.3922370209309431e-01  6.4704923438223738e-01  6.5443462018238918e-01  6.6138737183106933e-01  6.6791349150340829e-01  6.7401770498846825e-01  6.7970376649431552e-01  6.8497476039741179e-01  6.8983336165004516e-01  6.9428204649733660e-01  6.9832326258720734e-01  7.0195957258389541e-01  7.0519378140168465e-01  7.0802904870451733e-01  7.1046897990399049e-01  7.1251768422831352e-01  7.1417978967990103e-01  7.1546041201228783e-01  7.1636508641369190e-01  7.1689968303926399e-01  7.1707033682117860e-01  7.1688342435672936e-01  7.1634561394314200e-01  7.1546399961955964e-01  7.1424631042826880e-01  7.1270116853511656e-01  7.1083836070557205e-01  7.0866909003160228e-01  7.0620618719681993e-01  7.0346427796075894e-01  7.0045992020243397e-01  6.9721173531495306e-01  6.9374056189550692e-01  6.9006965164750989e-01  6.8622490477454456e-01  6.8223510253356123e-01  6.7813204216603229e-01  6.7395043271916955e-01  6.6972740419704402e-01  6.6550154931522698e-01  6.6131154639379963e-01  6.5719452905842368e-01  6.5318438177215077e-01  6.4931002709081287e-01  6.4559360052822967e-01  6.4204827489041938e-01  6.3867544136626453e-01  6.3546096843442845e-01  6.3237031183828463e-01  6.2934231165807974e-01  6.2628154789640911e-01  6.2304906485213496e-01  6.1945104189824896e-01  6.1522461054935018e-01  6.1001972641405044e-01  6.0337619301980661e-01  5.9469611420918311e-01  5.8321535199072472e-01  5.6798646871151914e-01  5.4791045992935961e-01  5.2192360890617795e-01  4.8961269026828325e-01  4.5253224083105192e-01  4.1557185499305199e-01  0.0000000000000000e+00  2.6696775096084736e-02  5.2781644680815150e-02  7.8263379603843469e-02  1.0315136710222027e-01  1.2745550470782263e-01  1.5118644323975960e-01  1.7435606152770269e-01  1.9697796716782395e-01  2.1906770856969537e-01  2.4064236262741456e-01  2.6171935728442164e-01  2.8231477762846291e-01  3.0244171960939015e-01  3.2210921346318228e-01  3.4132188682968456e-01  3.6008019783641176e-01  3.7838096551924444e-01  3.9621802260098671e-01  4.1358295469738837e-01  4.3046595029075030e-01  4.4685674272165321e-01  4.6274553710844635e-01  4.7812376872502715e-01  4.9298457981378446e-01  5.0732299984560092e-01  5.2113590456427794e-01  5.3442186949791326e-01  5.4718102420792725e-01  5.5941497652166394e-01  5.7112683073591042e-01  5.8232127871692518e-01  5.9300470092884006e-01  6.0318518267258170e-01  6.1287234531953871e-01  6.2207693168827083e-01  6.3081017003567175e-01  6.3908303836108460e-01  6.4690560304495337e-01  6.5428657817402158e-01  6.6123316355951978e-01  6.6775112606701492e-01  6.7384503535736062e-01  6.7951856013269740e-01  6.8477475672100119e-01  6.8961631582150273e-01  6.9404576081553038e-01  6.9806560678375962e-01  7.0167849375525526e-01  7.0488730397988131e-01  7.0769526525976811e-01  7.1010603458641608e-01  7.1212375176312936e-01  7.1375305334463857e-01  7.1499904346261189e-01  7.1586722858371454e-01  7.1636343517972645e-01  7.1649373900470670e-01  7.1626443843088239e-01  7.1568209941503946e-01  7.1475368590629773e-01  7.1348677007745176e-01  7.1188979795979324e-01  7.0997237486255871e-01  7.0774553556494046e-01  7.0522197591680524e-01  7.0241624017095472e-01  6.9934487573528115e-01  6.9602657897565856e-01  6.9248235902466115e-01  6.8873573899080875e-01  6.8481299331795586e-01  6.8074338533091394e-01  6.7655932467521662e-01  6.7229632614259771e-01  6.6799264701591898e-01  6.6368853453885757e-01  6.5942512063771164e-01  6.5524310058850865e-01  6.5118135280982647e-01  6.4727557437524252e-01  6.4355687090024216e-01  6.4005012724667465e-01  6.3677194225551892e-01  6.3372793707198338e-01  6.3090932179943560e-01  6.2828870406281068e-01  6.2581520979353178e-01  6.2340900867863192e-01  6.2095526677122570e-01  6.1829748563676956e-01  6.1523042618232482e-01  6.1149379863589393e-01  6.0677021651986307e-01  6.0069567383166356e-01  5.9290046529820906e-01  5.8311737162227106e-01  5.7142379031014856e-01  5.5868951690241353e-01  5.4716533879549889e-01  5.4083421335883153e-01  0.0000000000000000e+00  2.6668922333055085e-02  5.2730099140072588e-02  7.8192550875860009e-02  1.0306584458638400e-01  1.2735997600164123e-01  1.5108558037580144e-01  1.7425434764436079e-01  1.9687944168108162e-01  2.1897564010255235e-01  2.4055891528044618e-01  2.6164536280707579e-01  2.8224971120048103e-01  3.0238389219377315e-01  3.2205610319969219e-01  3.4127050424618521e-01  3.6002741530364502e-01  3.7832379152458551e-01  3.9615382727817033e-01  4.1350964942226415e-01  4.3038210817292760e-01  4.4676163975646233e-01  4.6263910599391289e-01  4.7800648159615500e-01  4.9285729511970122e-01  5.0718681098226015e-01  5.2099201597985201e-01  5.3427150969564985e-01  5.4702539232680014e-01  5.5925521228573871e-01  5.7096399506117557e-01  5.8215633203522077e-01  5.9283846753231240e-01  6.0301829304475629e-01  6.1270515606406162e-01  6.2190943392219888e-01  6.3064190750593774e-01  6.3891305910997254e-01  6.4673245967501392e-01  6.5410837595999882e-01  6.6104764190462795e-01  6.6755575345651397e-01  6.7363710089114237e-01  6.7929525164127891e-01  6.8453322210055290e-01  6.8935370838149712e-01  6.9375927092761946e-01  6.9775248183568928e-01  7.0133604751053058e-01  7.0451291587918874e-01  7.0728637046555831e-01  7.0966010660206102e-01  7.1163828071511581e-01  7.1322552374841497e-01  7.1442691488660248e-01  7.1524792092196499e-01  7.1569431768840952e-01  7.1577211982296163e-01  7.1548755015818200e-01  7.1484707729202013e-01  7.1385753822212084e-01  7.1252634452570607e-01  7.1086175107117600e-01  7.0887315292895137e-01  7.0657137430883477e-01  7.0396892337774508e-01  7.0108020413634642e-01  6.9792169439676022e-01  6.9451211152251013e-01  6.9087259148780622e-01  6.8702690019019408e-01  6.8300167776040999e-01  6.7882668717230943e-01  6.7453500242684450e-01  6.7016304189385867e-01  6.6575035007907923e-01  6.6133907421746296e-01  6.5697316481821399e-01  6.5269741025746231e-01  6.4855643995477052e-01  6.4459377643796933e-01  6.4085091646373205e-01  6.3736633536490295e-01  6.3417428005751952e-01  6.3130325413062149e-01  6.2877419042110871e-01  6.2659842938681176e-01  6.2477574175104544e-01  6.2329271456040958e-01  6.2212186933177094e-01  6.2122202975111418e-01  6.2054097821019938e-01  6.2002267671189215e-01  6.1962364137667847e-01  6.1934692385334689e-01  6.1930805480678908e-01  6.1985433656361666e-01  6.2175948019290361e-01  6.2648832690354672e-01  6.3645069661113485e-01  6.5507789717851861e-01  0.0000000000000000e+00  2.6634353442073298e-02  5.2666288500074918e-02  7.8105089933742447e-02  1.0296048503014062e-01  1.2724252081095933e-01  1.5096173801459650e-01  1.7412951802387713e-01  1.9675841564206423e-01  2.1886223169800409e-01  2.4045560407485098e-01  2.6155306519402016e-01  2.8216777709990404e-01  3.0231033490198256e-01  3.2198797984419081e-01  3.4120433641962533e-01  3.5995957381479221e-01  3.7825081917154335e-01  3.9607270101408126e-01  4.1341798230661569e-01  4.3027827856016487e-01  4.4664483069441607e-01  4.6250925104716362e-01  4.7786413674826239e-01  4.9270347389297714e-01  5.0702282129490617e-01  5.2081932491407790e-01  5.3409164560235567e-01  5.4683988020310004e-01  5.5906553064848563e-01  5.7077153958828042e-01  5.8196237143990071e-01  5.9264408007061553e-01  6.0282427862164079e-01  6.1251192961598455e-01  6.2171691819676156e-01  6.3044945133022612e-01  6.3871940437713526e-01  6.4653576623613329e-01  6.5390629584898907e-01  6.6083742235020193e-01  6.6733434624214094e-01  6.7340126144651025e-01  6.7904161960881715e-01  6.8425838198944811e-01  6.8905423272395427e-01  6.9343174934916085e-01  6.9739353872839482e-01  7.0094234975856262e-01  7.0408117127100089e-01  7.0681331752220466e-01  7.0914249751464853e-01  7.1107286041343110e-01  7.1260900906269342e-01  7.1375597762090603e-01  7.1451917710807855e-01  7.1490432258604442e-01  7.1491736521926263e-01  7.1456445841874494e-01  7.1385198657975113e-01  7.1278667582855271e-01  7.1137578974718263e-01  7.0962739387108642e-01  7.0755065783888094e-01  7.0515615948318044e-01  7.0245616260479560e-01  6.9946485608764675e-01  6.9619855974128120e-01  6.9267591550936514e-01  6.8891808754787431e-01  6.8494898955238603e-01  6.8079554242212437e-01  6.7648794124273626e-01  6.7205988236522962e-01  6.6754867946161078e-01  6.6299519719358468e-01  6.5844356482994715e-01  6.5394069515994002e-01  6.4953569754927509e-01  6.4527929923885807e-01  6.4122335798701313e-01  6.3742048232193493e-01  6.3392371711809925e-01  6.3078623934932165e-01  6.2806105557818936e-01  6.2580079189317617e-01  6.2405779760507785e-01  6.2288491585172390e-01  6.2233738436541219e-01  6.2247644566931026e-01  6.2337549024131678e-01  6.2513012661807854e-01  6.2787465065278536e-01  6.3180905437069079e-01  6.3724287938880797e-01  6.4466427572815177e-01  6.5484245621237580e-01  6.6896438585343365e-01  6.8878588795648388e-01  7.1674601110205971e-01  7.5597536514673225e-01  0.0000000000000000e+00  2.6592756720339741e-02  5.2589827553218817e-02  7.8000702982121195e-02  1.0283518663014757e-01  1.2710327310089301e-01  1.5081527669223563e-01  1.7398210148068227e-01  1.9661548861415037e-01  2.1872803653158415e-01  2.4033282618859306e-01  2.6144262964430531e-01  2.8206888166622124e-01  3.0222071824355701e-01  3.2190434050778427e-01  3.4112279383456062e-01  3.5987609388289538e-01  3.7816157343458912e-01  3.9597435550827892e-01  4.1330791411002293e-01  4.3015470915148013e-01  4.4650686354548880e-01  4.6235681404121681e-01  4.7769785110095037e-01  4.9252448631832307e-01  5.0683263664358336e-01  5.2061966453236497e-01  5.3388434038224009e-01  5.4662679371000966e-01  5.5884849952394255e-01  5.7055231526286077e-01  5.8174254812439419e-01  5.9242499899535872e-01  6.0260690807762474e-01  6.1229673354108338e-01  6.2150373829601591e-01  6.3023743177409319e-01  6.3850697928312006e-01  6.4632071162347782e-01  6.5368582947196208e-01  6.6060832567811267e-01  6.6709308470102924e-01  6.7314408751426580e-01  6.7876465276914211e-01  6.8395766634393884e-01  6.8872577631650345e-01  6.9307154966564277e-01  6.9699759765070268e-01  7.0050667968561908e-01  7.0360179306347426e-01  7.0628625083653929e-01  7.0856374494165353e-01  7.1043838817754734e-01  7.1191472815829271e-01  7.1299772944022533e-01  7.1369272639820491e-01  7.1400535799388265e-01  7.1394150435895187e-01  7.1350725143953331e-01  7.1270891093428335e-01  7.1155311632419815e-01  7.1004700206097537e-01  7.0819845533838033e-01  7.0601641443106944e-01  7.0351118055340500e-01  7.0069471443453124e-01  6.9758090214470181e-01  6.9418579127885105e-01  6.9052781205654523e-01  6.8662800391584522e-01  6.8251026505123369e-01  6.7820163034569625e-01  6.7373256426872730e-01  6.6913723412897963e-01  6.6445371383946394e-01  6.5972406994288013e-01  6.5499430793904800e-01  6.5031420415969632e-01  6.4573709703233673e-01  6.4131973554936816e-01  6.3712226903035607e-01  6.3320842329418425e-01  6.2964587497208380e-01  6.2650683753446335e-01  6.2386892372245129e-01  6.2181644545626680e-01  6.2044243573644731e-01  6.1985180281910079e-01  6.2016614267586601e-01  6.2153087273831376e-01  6.2412559876577578e-01  6.2817909861439591e-01  6.3399104944832618e-01  6.4196354305917491e-01  6.5264620098131343e-01  6.6679856494850132e-01  6.8547096007317720e-01  7.1009834335360711e-01  7.4259039157487472e-01  7.8538989188416986e-01  8.4147098480789650e-01  0.0000000000000000e+00  2.6543859992590658e-02  5.2500495182994114e-02  7.7879415365151430e-02  1.0269032123885875e-01  1.2694297595978321e-01  1.5064727141575998e-01  1.7381341189785124e-01  1.9645208300870914e-01  2.1857444278653188e-01  2.4019180955086200e-01  2.6131503932595995e-01  2.8195373327059520e-01  3.0211549921697395e-01  3.2180545602119948e-01  3.4102605149625370e-01  3.5977715341397543e-01  3.7805632797079602e-01  3.9585923634275033e-01  4.1318011501733454e-01  4.3001232157575936e-01  4.463489145