<?xml version="1.0"?>
<VTKFile type="UnstructuredGrid"  version="0.1"  >
<UnstructuredGrid>
<Piece  NumberOfPoints="20201" NumberOfCells="40000">
<Points>
<DataArray  type="Float64"  NumberOfComponents="3"  format="ascii">0 0 0  1 0 0  2 0 0  3 0 0  4 0 0  5 0 0  6 0 0  7 0 0  8 0 0  9 0 0  10 0 0  11 0 0  12 0 0  13 0 0  14 0 0  15 0 0  16 0 0  17 0 0  18 0 0  19 0 0  20 0 0  21 0 0  22 0 0  23 0 0  24 0 0  25 0 0  26 0 0  27 0 0  28 0 0  29 0 0  30 0 0  31 0 0  32 0 0  33 0 0  34 0 0  35 0 0  36 0 0  37 0 0  38 0 0  39 0 0  40 0 0  41 0 0  42 0 0  43 0 0  44 0 0  45 0 0  46 0 0  47 0 0  48 0 0  49 0 0  50 0 0  51 0 0  52 0 0  53 0 0  54 0 0  55 0 0  56 0 0  57 0 0  58 0 0  59 0 0  60 0 0  61 0 0  62 0 0  63 0 0  64 0 0  65 0 0  66 0 0  67 0 0  68 0 0  69 0 0  70 0 0  71 0 0  72 0 0  73 0 0  74 0 0  75 0 0  76 0 0  77 0 0  78 0 0  79 0 0  80 0 0  81 0 0  82 0 0  83 0 0  84 0 0  85 0 0  86 0 0  87 0 0  88 0 0  89 0 0  90 0 0  91 0 0  92 0 0  93 0 0  94 0 0  95 0 0  96 0 0  97 0 0  98 0 0  99 0 0  100 0 0  0 1 0  1 1 0  2 1 0  3 1 0  4 1 0  5 1 0  6 1 0  7 1 0  8 1 0  9 1 0  10 1 0  11 1 0  12 1 0  13 1 0  14 1 0  15 1 0  16 1 0  17 1 0  18 1 0  19 1 0  20 1 0  21 1 0  22 1 0  23 1 0  24 1 0  25 1 0  26 1 0  27 1 0  28 1 0  29 1 0  30 1 0  31 1 0  32 1 0  33 1 0  34 1 0  35 1 0  36 1 0  37 1 0  38 1 0  39 1 0  40 1 0  41 1 0  42 1 0  43 1 0  44 1 0  45 1 0  46 1 0  47 1 0  48 1 0  49 1 0  50 1 0  51 1 0  52 1 0  53 1 0  54 1 0  55 1 0  56 1 0  57 1 0  58 1 0  59 1 0  60 1 0  61 1 0  62 1 0  63 1 0  64 1 0  65 1 0  66 1 0  67 1 0  68 1 0  69 1 0  70 1 0  71 1 0  72 1 0  73 1 0  74 1 0  75 1 0  76 1 0  77 1 0  78 1 0  79 1 0  80 1 0  81 1 0  82 1 0  83 1 0  84 1 0  85 1 0  86 1 0  87 1 0  88 1 0  89 1 0  90 1 0  91 1 0  92 1 0  93 1 0  94 1 0  95 1 0  96 1 0  97 1 0  98 1 0  99 1 0  100 1 0  0 2 0  1 2 0  2 2 0  3 2 0  4 2 0  5 2 0  6 2 0  7 2 0  8 2 0  9 2 0  10 2 0  11 2 0  12 2 0  13 2 0  14 2 0  15 2 0  16 2 0  17 2 0  18 2 0  19 2 0  20 2 0  21 2 0  22 2 0  23 2 0  24 2 0  25 2 0  26 2 0  27 2 0  28 2 0  29 2 0  30 2 0  31 2 0  32 2 0  33 2 0  34 2 0  35 2 0  36 2 0  37 2 0  38 2 0  39 2 0  40 2 0  41 2 0  42 2 0  43 2 0  44 2 0  45 2 0  46 2 0  47 2 0  48 2 0  49 2 0  50 2 0  51 2 0  52 2 0  53 2 0  54 2 0  55 2 0  56 2 0  57 2 0  58 2 0  59 2 0  60 2 0  61 2 0  62 2 0  63 2 0  64 2 0  65 2 0  66 2 0  67 2 0  68 2 0  69 2 0  70 2 0  71 2 0  72 2 0  73 2 0  74 2 0  75 2 0  76 2 0  77 2 0  78 2 0  79 2 0  80 2 0  81 2 0  82 2 0  83 2 0  84 2 0  85 2 0  86 2 0  87 2 0  88 2 0  89 2 0  90 2 0  91 2 0  92 2 0  93 2 0  94 2 0  95 2 0  96 2 0  97 2 0  98 2 0  99 2 0  100 2 0  0 3 0  1 3 0  2 3 0  3 3 0  4 3 0  5 3 0  6 3 0  7 3 0  8 3 0  9 3 0  10 3 0  11 3 0  12 3 0  13 3 0  14 3 0  15 3 0  16 3 0  17 3 0  18 3 0  19 3 0  20 3 0  21 3 0  22 3 0  23 3 0  24 3 0  25 3 0  26 3 0  27 3 0  28 3 0  29 3 0  30 3 0  31 3 0  32 3 0  33 3 0  34 3 0  35 3 0  36 3 0  37 3 0  38 3 0  39 3 0  40 3 0  41 3 0  42 3 0  43 3 0  44 3 0  45 3 0  46 3 0  47 3 0  48 3 0  49 3 0  50 3 0  51 3 0  52 3 0  53 3 0  54 3 0  55 3 0  56 3 0  57 3 0  58 3 0  59 3 0  60 3 0  61 3 0  62 3 0  63 3 0  64 3 0  65 3 0  66 3 0  67 3 0  68 3 0  69 3 0  70 3 0  71 3 0  72 3 0  73 3 0  74 3 0  75 3 0  76 3 0  77 3 0  78 3 0  79 3 0  80 3 0  81 3 0  82 3 0  83 3 0  84 3 0  85 3 0  86 3 0  87 3 0  88 3 0  89 3 0  90 3 0  91 3 0  92 3 0  93 3 0  94 3 0  95 3 0  96 3 0  97 3 0  98 3 0  99 3 0  100 3 0  0 4 0  1 4 0  2 4 0  3 4 0  4 4 0  5 4 0  6 4 0  7 4 0  8 4 0  9 4 0  10 4 0  11 4 0  12 4 0  13 4 0  14 4 0  15 4 0  16 4 0  17 4 0  18 4 0  19 4 0  20 4 0  21 4 0  22 4 0  23 4 0  24 4 0  25 4 0  26 4 0  27 4 0  28 4 0  29 4 0  30 4 0  31 4 0  32 4 0  33 4 0  34 4 0  35 4 0  36 4 0  37 4 0  38 4 0  39 4 0  40 4 0  41 4 0  42 4 0  43 4 0  44 4 0  45 4 0  46 4 0  47 4 0  48 4 0  49 4 0  50 4 0  51 4 0  52 4 0  53 4 0  54 4 0  55 4 0  56 4 0  57 4 0  58 4 0  59 4 0  60 4 0  61 4 0  62 4 0  63 4 0  64 4 0  65 4 0  66 4 0  67 4 0  68 4 0  69 4 0  70 4 0  71 4 0  72 4 0  73 4 0  74 4 0  75 4 0  76 4 0  77 4 0  78 4 0  79 4 0  80 4 0  81 4 0  82 4 0  83 4 0  84 4 0  85 4 0  86 4 0  87 4 0  88 4 0  89 4 0  90 4 0  91 4 0  92 4 0  93 4 0  94 4 0  95 4 0  96 4 0  97 4 0  98 4 0  99 4 0  100 4 0  0 5 0  1 5 0  2 5 0  3 5 0  4 5 0  5 5 0  6 5 0  7 5 0  8 5 0  9 5 0  10 5 0  11 5 0  12 5 0  13 5 0  14 5 0  15 5 0  16 5 0  17 5 0  18 5 0  19 5 0  20 5 0  21 5 0  22 5 0  23 5 0  24 5 0  25 5 0  26 5 0  27 5 0  28 5 0  29 5 0  30 5 0  31 5 0  32 5 0  33 5 0  34 5 0  35 5 0  36 5 0  37 5 0  38 5 0  39 5 0  40 5 0  41 5 0  42 5 0  43 5 0  44 5 0  45 5 0  46 5 0  47 5 0  48 5 0  49 5 0  50 5 0  51 5 0  52 5 0  53 5 0  54 5 0  55 5 0  56 5 0  57 5 0  58 5 0  59 5 0  60 5 0  61 5 0  62 5 0  63 5 0  64 5 0  65 5 0  66 5 0  67 5 0  68 5 0  69 5 0  70 5 0  71 5 0  72 5 0  73 5 0  74 5 0  75 5 0  76 5 0  77 5 0  78 5 0  79 5 0  80 5 0  81 5 0  82 5 0  83 5 0  84 5 0  85 5 0  86 5 0  87 5 0  88 5 0  89 5 0  90 5 0  91 5 0  92 5 0  93 5 0  94 5 0  95 5 0  96 5 0  97 5 0  98 5 0  99 5 0  100 5 0  0 6 0  1 6 0  2 6 0  3 6 0  4 6 0  5 6 0  6 6 0  7 6 0  8 6 0  9 6 0  10 6 0  11 6 0  12 6 0  13 6 0  14 6 0  15 6 0  16 6 0  17 6 0  18 6 0  19 6 0  20 6 0  21 6 0  22 6 0  23 6 0  24 6 0  25 6 0  26 6 0  27 6 0  28 6 0  29 6 0  30 6 0  31 6 0  32 6 0  33 6 0  34 6 0  35 6 0  36 6 0  37 6 0  38 6 0  39 6 0  40 6 0  41 6 0  42 6 0  43 6 0  44 6 0  45 6 0  46 6 0  47 6 0  48 6 0  49 6 0  50 6 0  51 6 0  52 6 0  53 6 0  54 6 0  55 6 0  56 6 0  57 6 0  58 6 0  59 6 0  60 6 0  61 6 0  62 6 0  63 6 0  64 6 0  65 6 0  66 6 0  67 6 0  68 6 0  69 6 0  70 6 0  71 6 0  72 6 0  73 6 0  74 6 0  75 6 0  76 6 0  77 6 0  78 6 0  79 6 0  80 6 0  81 6 0  82 6 0  83 6 0  84 6 0  85 6 0  86 6 0  87 6 0  88 6 0  89 6 0  90 6 0  91 6 0  92 6 0  93 6 0  94 6 0  95 6 0  96 6 0  97 6 0  98 6 0  99 6 0  100 6 0  0 7 0  1 7 0  2 7 0  3 7 0  4 7 0  5 7 0  6 7 0  7 7 0  8 7 0  9 7 0  10 7 0  11 7 0  12 7 0  13 7 0  14 7 0  15 7 0  16 7 0  17 7 0  18 7 0  19 7 0  20 7 0  21 7 0  22 7 0  23 7 0  24 7 0  25 7 0  26 7 0  27 7 0  28 7 0  29 7 0  30 7 0  31 7 0  32 7 0  33 7 0  34 7 0  35 7 0  36 7 0  37 7 0  38 7 0  39 7 0  40 7 0  41 7 0  42 7 0  43 7 0  44 7 0  45 7 0  46 7 0  47 7 0  48 7 0  49 7 0  50 7 0  51 7 0  52 7 0  53 7 0  54 7 0  55 7 0  56 7 0  57 7 0  58 7 0  59 7 0  60 7 0  61 7 0  62 7 0  63 7 0  64 7 0  65 7 0  66 7 0  67 7 0  68 7 0  69 7 0  70 7 0  71 7 0  72 7 0  73 7 0  74 7 0  75 7 0  76 7 0  77 7 0  78 7 0  79 7 0  80 7 0  81 7 0  82 7 0  83 7 0  84 7 0  85 7 0  86 7 0  87 7 0  88 7 0  89 7 0  90 7 0  91 7 0  92 7 0  93 7 0  94 7 0  95 7 0  96 7 0  97 7 0  98 7 0  99 7 0  100 7 0  0 8 0  1 8 0  2 8 0  3 8 0  4 8 0  5 8 0  6 8 0  7 8 0  8 8 0  9 8 0  10 8 0  11 8 0  12 8 0  13 8 0  14 8 0  15 8 0  16 8 0  17 8 0  18 8 0  19 8 0  20 8 0  21 8 0  22 8 0  23 8 0  24 8 0  25 8 0  26 8 0  27 8 0  28 8 0  29 8 0  30 8 0  31 8 0  32 8 0  33 8 0  34 8 0  35 8 0  36 8 0  37 8 0  38 8 0  39 8 0  40 8 0  41 8 0  42 8 0  43 8 0  44 8 0  45 8 0  46 8 0  47 8 0  48 8 0  49 8 0  50 8 0  51 8 0  52 8 0  53 8 0  54 8 0  55 8 0  56 8 0  57 8 0  58 8 0  59 8 0  60 8 0  61 8 0  62 8 0  63 8 0  64 8 0  65 8 0  66 8 0  67 8 0  68 8 0  69 8 0  70 8 0  71 8 0  72 8 0  73 8 0  74 8 0  75 8 0  76 8 0  77 8 0  78 8 0  79 8 0  80 8 0  81 8 0  82 8 0  83 8 0  84 8 0  85 8 0  86 8 0  87 8 0  88 8 0  89 8 0  90 8 0  91 8 0  92 8 0  93 8 0  94 8 0  95 8 0  96 8 0  97 8 0  98 8 0  99 8 0  100 8 0  0 9 0  1 9 0  2 9 0  3 9 0  4 9 0  5 9 0  6 9 0  7 9 0  8 9 0  9 9 0  10 9 0  11 9 0  12 9 0  13 9 0  14 9 0  15 9 0  16 9 0  17 9 0  18 9 0  19 9 0  20 9 0  21 9 0  22 9 0  23 9 0  24 9 0  25 9 0  26 9 0  27 9 0  28 9 0  29 9 0  30 9 0  31 9 0  32 9 0  33 9 0  34 9 0  35 9 0  36 9 0  37 9 0  38 9 0  39 9 0  40 9 0  41 9 0  42 9 0  43 9 0  44 9 0  45 9 0  46 9 0  47 9 0  48 9 0  49 9 0  50 9 0  51 9 0  52 9 0  53 9 0  54 9 0  55 9 0  56 9 0  57 9 0  58 9 0  59 9 0  60 9 0  61 9 0  62 9 0  63 9 0  64 9 0  65 9 0  66 9 0  67 9 0  68 9 0  69 9 0  70 9 0  71 9 0  72 9 0  73 9 0  74 9 0  75 9 0  76 9 0  77 9 0  78 9 0  79 9 0  80 9 0  81 9 0  82 9 0  83 9 0  84 9 0  85 9 0  86 9 0  87 9 0  88 9 0  89 9 0  90 9 0  91 9 0  92 9 0  93 9 0  94 9 0  95 9 0  96 9 0  97 9 0  98 9 0  99 9 0  100 9 0  0 10 0  1 10 0  2 10 0  3 10 0  4 10 0  5 10 0  6 10 0  7 10 0  8 10 0  9 10 0  10 10 0  11 10 0  12 10 0  13 10 0  14 10 0  15 10 0  16 10 0  17 10 0  18 10 0  19 10 0  20 10 0  21 10 0  22 10 0  23 10 0  24 10 0  25 10 0  26 10 0  27 10 0  28 10 0  29 10 0  30 10 0  31 10 0  32 10 0  33 10 0  34 10 0  35 10 0  36 10 0  37 10 0  38 10 0  39 10 0  40 10 0  41 10 0  42 10 0  43 10 0  44 10 0  45 10 0  46 10 0  47 10 0  48 10 0  49 10 0  50 10 0  51 10 0  52 10 0  53 10 0  54 10 0  55 10 0  56 10 0  57 10 0  58 10 0  59 10 0  60 10 0  61 10 0  62 10 0  63 10 0  64 10 0  65 10 0  66 10 0  67 10 0  68 10 0  69 10 0  70 10 0  71 10 0  72 10 0  73 10 0  74 10 0  75 10 0  76 10 0  77 10 0  78 10 0  79 10 0  80 10 0  81 10 0  82 10 0  83 10 0  84 10 0  85 10 0  86 10 0  87 10 0  88 10 0  89 10 0  90 10 0  91 10 0  92 10 0  93 10 0  94 10 0  95 10 0  96 10 0  97 10 0  98 10 0  99 10 0  100 10 0  0 11 0  1 11 0  2 11 0  3 11 0  4 11 0  5 11 0  6 11 0  7 11 0  8 11 0  9 11 0  10 11 0  11 11 0  12 11 0  13 11 0  14 11 0  15 11 0  16 11 0  17 11 0  18 11 0  19 11 0  20 11 0  21 11 0  22 11 0  23 11 0  24 11 0  25 11 0  26 11 0  27 11 0  28 11 0  29 11 0  30 11 0  31 11 0  32 11 0  33 11 0  34 11 0  35 11 0  36 11 0  37 11 0  38 11 0  39 11 0  40 11 0  41 11 0  42 11 0  43 11 0  44 11 0  45 11 0  46 11 0  47 11 0  48 11 0  49 11 0  50 11 0  51 11 0  52 11 0  53 11 0  54 11 0  55 11 0  56 11 0  57 11 0  58 11 0  59 11 0  60 11 0  61 11 0  62 11 0  63 11 0  64 11 0  65 11 0  66 11 0  67 11 0  68 11 0  69 11 0  70 11 0  71 11 0  72 11 0  73 11 0  74 11 0  75 11 0  76 11 0  77 11 0  78 11 0  79 11 0  80 11 0  81 11 0  82 11 0  83 11 0  84 11 0  85 11 0  86 11 0  87 11 0  88 11 0  89 11 0  90 11 0  91 11 0  92 11 0  93 11 0  94 11 0  95 11 0  96 11 0  97 11 0  98 11 0  99 11 0
[...]
<PointData  Scalars="f_3357-2"> 
<DataArray  type="Float64"  Name="f_3357-2"  format="ascii">0.0000000000000000e+00  2.6734652100295239e-02  5.2852909666687542e-02  7.8363777881143112e-02  1.0327707066621004e-01  1.2760334139241286e-01  1.5135410334065311e-01  1.7454219793315126e-01  1.9718209759200037e-01  2.1928986529305955e-01  2.4088253392911793e-01  2.6197689121550732e-01  2.8258797827047039e-01  3.0272778986277721e-01  3.2240453868633284e-01  3.4162253226649392e-01  3.6038246790275358e-01  3.7868190833095267e-01  3.9651580212471421e-01  4.1387703660772418e-01  4.3075707174827765e-01  4.4714667897044746e-01  4.6303673288653147e-01  4.7841894079535008e-01  4.9328639396503221e-01  5.0763388513420205e-01  5.2145801479608811e-01  5.3475716042228516e-01  5.4753139266859452e-01  5.5978240149847791e-01  5.7151346069310272e-01  5.8272942348982681e-01  5.9343671122739583e-01  6.0364323645098061e-01  6.1335820059275536e-01  6.2259173256954059e-01  6.3135438680524858e-01  6.3965657760252248e-01  6.4750806028820529e-01  6.5491755732306645e-01  6.6189257686023850e-01  6.6843941165331444e-01  6.7456326639278374e-01  6.8026845177837503e-01  6.8555859647784678e-01  6.9043684950742568e-01  6.9490606423058765e-01  6.9896896587232182e-01  7.0262830693454492e-01  7.0588701169608725e-01  7.0874830556105384e-01  7.1121582062424649e-01  7.1329366772195724e-01  7.1498646832738455e-01  7.1629934641021731e-01  7.1723788915776499e-01  7.1780809395087863e-01  7.1801632477785382e-01  7.1786930233472535e-01  7.1737414737035343e-01  7.1653848691961852e-01  7.1537062026621689e-01  7.1387972944827693e-01  7.1207611155172679e-01  7.0997140909596212e-01  7.0757882028008245e-01  7.0491328042587842e-01  7.0199161637063201e-01  6.9883268359571571e-01  6.9545749849391991e-01  6.9188937214940727e-01  6.8815403398806474e-01  6.8427970218618372e-01  6.8029701779837215e-01  6.7623872763758197e-01  6.7213900304892027e-01  6.6803233629878822e-01  6.6395204743760883e-01  6.5992850549258963e-01  6.5598715941133423e-01  6.5214637758048766e-01  6.4841495855155107e-01  6.4478905843780576e-01  6.4124820680559669e-01  6.3775004095544374e-01  6.3422335178737343e-01  6.3055897327360522e-01  6.2659791777129725e-01  6.2211587925264267e-01  6.1680266828645669e-01  6.1023415813734716e-01  6.0183275039516104e-01  5.9080988458258343e-01  5.7607978364506007e-01  5.5612503547698322e-01  5.2877570834029508e-01  4.9081741216965197e-01  4.3721207844809007e-01  3.5924582301386671e-01  2.3846003312660624e-01  0.0000000000000000e+00  0.0000000000000000e+00  2.6731427576354629e-02  5.2847006383661181e-02  7.8355749721652795e-02  1.0326747319234460e-01  1.2759272294075055e-01  1.5134299214793931e-01  1.7453108303391454e-01  1.9717140208074768e-01  2.1927991432786725e-01  2.4087352555428362e-01  2.6196888123038004e-01  2.8258088646761576e-01  3.0272142555929027e-01  3.2239863596425472e-01  3.4161678486835723e-01  3.6037655847900035e-01  3.7867553173516483e-01  3.9650868465893158e-01  4.1386895244428973e-01  4.3074785573610019e-01  4.4713623356956483e-01  4.6302502732977896e-01  4.7840600260805105e-01  4.9327229526880895e-01  5.0761872725458645e-01  5.2144191421291541e-01  5.3474023773481938e-01  5.4751376489357761e-01  5.5976417714832105e-01  5.7149473668865391e-01  5.8271028284197013e-01  5.9341722042312472e-01  6.0362344161958204e-01  6.1333812195027981e-01  6.2257135743157110e-01  6.3133366242328759e-01  6.3963540571430588e-01  6.4748629510176037e-01  6.5489500768173003e-01  6.6186901210389515e-01  6.6841456984538838e-01  6.7453686340247354e-01  6.8024019003298719e-01  6.8552817268571176e-01  6.9040396103190615e-01  6.9487041398204330e-01  6.9893026562882854e-01  7.0258627900998805e-01  7.0584138893468362e-01  7.0869882978031862e-01  7.1116223981865057e-01  7.1323573250086336e-01  7.1492392811803818e-01  7.1623194587413719e-01  7.1716536507012607e-01  7.1773017255246296e-01  7.1793271942630310e-01  7.1777971123798712e-01  7.1727825130682066e-01  7.1643594708814984e-01  7.1526107665876926e-01  7.1376280028764028e-01  7.1195139433236199e-01  7.0983848363426816e-01  7.0743725400041257e-01  7.0476263595081357e-01  7.0183146136782648e-01  6.9866260273437231e-01  6.9527710726825698e-01  6.9169833231251621e-01  6.8795207064613040e-01  6.8406662362277393e-01  6.8007274118860783e-01  6.7600331685995663e-01  6.7189272778601317e-01  6.6777576284408502e-01  6.6368617011220954e-01  6.5965492456423136e-01  6.5570830997690055e-01  6.5186581653776920e-01  6.4813772379043322e-01  6.4452212453518576e-01  6.4100107420048191e-01  6.3753551186764634e-01  6.3405856867565447e-01  6.3046682847530666e-01  6.2660899252287117e-01  6.2227114869703015e-01  6.1715734197091976e-01  6.1086326609813402e-01  6.0283953998997619e-01  5.9233898639401106e-01  5.7833895732910967e-01  5.5942347388773983e-01  5.3359728614256374e-01  4.9797693572198265e-01  4.4824355508893743e-01  3.7761581342022654e-01  2.7518775381328275e-01  1.4237172979226365e-01  0.0000000000000000e+00  2.6721742251247599e-02  5.2829278577356947e-02  7.8331644702566344e-02  1.0323865859286492e-01  1.2756084154778660e-01  1.5130962309395943e-01  1.7449768488521780e-01  1.9713923398182409e-01  2.1924994241632903e-01  2.4084633821837650e-01  2.6194464561208064e-01  2.8255936723555714e-01  3.0270205997354999e-01  3.2238063763594671e-01  3.4159924705842054e-01  3.6035854126001132e-01  3.7865613172166046e-01  3.9648709248524927e-01  4.1384450137156420e-01  4.3072005910927380e-01  4.4710480477688991e-01  4.6298987702551120e-01  4.7836721378527008e-01  4.9323008327798101e-01  5.0757339492577225e-01  5.2139381082408909e-01  5.3468972662944059e-01  5.4746120063908899e-01  5.5970989058865572e-01  5.7143902508647737e-01  5.8265340196917847e-01  5.9335937553139717e-01  6.0356477475867165e-01  6.1327869447336669e-01  6.2251112889278626e-01  6.3127246977400830e-01  6.3957294828462963e-01  6.4742213006879989e-01  6.5482855775999782e-01  6.6179958368422753e-01  6.6834137754817902e-01  6.7445905667652961e-01  6.8015687848118411e-01  6.8543844823146804e-01  6.9030691612188810e-01  6.9476515552764895e-01  6.9881592448498608e-01  7.0246201478398462e-01  7.0570639006544955e-01  7.0855230921866119e-01  7.1100342717565534e-01  7.1306386400043820e-01  7.1473823587171248e-01  7.1603164777967276e-01  7.1694965607329064e-01  7.1749821730867980e-01  7.1768364583859745e-01  7.1751260417769080e-01  7.1699214614225959e-01  7.1612982333657471e-01  7.1493385284049105e-01  7.1341333156676279e-01  7.1157847458934165e-01  7.0944085328065087e-01  7.0701361433056620e-01  7.0431167034161157e-01  7.0135186326319998e-01  6.9815311003881897e-01  6.9473654249704853e-01  6.9112564783208175e-01  6.8734639925598640e-01  6.8342733767269559e-01  6.7939952937706127e-01  6.7529629650643164e-01  6.7115261889252487e-01  6.6700415397971335e-01  6.6288590227367605e-01  6.5883061095745954e-01  6.5486700560071398e-01  6.5101785874581097e-01  6.4729778471792421e-01  6.4371054527352767e-01  6.4024558704340573e-01  6.3687350346230620e-01  6.3354010047515319e-01  6.3015872227272329e-01  6.2660042494081514e-01  6.2268141137152955e-01  6.1814678093158659e-01  6.1264905041184770e-01  6.0571908901764226e-01  5.9672613444803524e-01  5.8482242635632231e-01  5.6886682987075243e-01  5.4732191761498339e-01  5.1812713306515312e-01  4.7859934958853534e-01  4.2566829019537678e-01  3.5815395973448177e-01  2.8184285212220994e-01  0.0000000000000000e+00  2.6705562353186885e-02  5.2799677368781064e-02  7.8291411243252951e-02  1.0319057659963005e-01  1.2750764258379452e-01  1.5125392138860744e-01  1.7444188379012648e-01  1.9708539889201937e-01  2.1919965248503120e-01  2.4080055411543153e-01  2.6190364333255184e-01  2.8252276995795406e-01  3.0266895862334592e-01  3.2234975765275331e-01  3.4156911595209360e-01  3.6032763169370846e-01  3.7862297689993069e-01  3.9645038090972468e-01  4.1380315570814408e-01  4.3067329567146306e-01  4.4705216431356387e-01  4.6293121945028815e-01  4.7830267836157947e-01  4.9316002549129007e-01  5.0749831573775317e-01  5.2131429173875021e-01  5.3460637793007082e-01  5.4737462409160120e-01  5.5962065390553228e-01  5.7134764358866397e-01  5.8256032240447397e-01  5.9326495735256302e-01  6.0346926541251833e-01  6.1318219783426198e-01  6.2241356984302665e-01  6.3117356179938078e-01  6.3947217258894584e-01  6.4731873261431816e-01  6.5472156561150352e-01  6.6168783679174192e-01  6.6822356916967551e-01  6.7433377567947073e-01  6.8002264870726881e-01  6.8529376240945350e-01  6.9015026343436081e-01  6.9459504262835203e-01  6.9863088982053811e-01  7.0226063598298827e-01  7.0548728431053642e-01  7.0831412705554919e-01  7.1074484100614443e-01  7.1278355323679810e-01  7.1443487105823889e-01  7.1570387571448368e-01  7.1659608713094225e-01  7.1711741505350102e-01  7.1727411805767594e-01  7.1707279406447466e-01  7.1652042274308403e-01  7.1562447142303987e-01  7.1439306366801458e-01  7.1283519698301401e-01  7.1096098729178148e-01  7.0878191566923188e-01  7.0631105764108248e-01  7.0356328492265052e-01  7.0055544016148819e-01  6.9730649348246643e-01  6.9383769242413251e-01  6.9017271165611049e-01  6.8633779357088276e-01  6.8236184514696041e-01  6.7827642506045438e-01  6.7411553070479857e-01  6.6991509666732751e-01  6.6571215755106838e-01  6.6154369797400936e-01  6.5744527112341844e-01  6.5344946980976226e-01  6.4958426901301991e-01  6.4587115821848307e-01  6.4232289189454084e-01  6.3894063458098338e-01  6.3571026338984349e-01  6.3259760072023463e-01  6.2954236414532239e-01  6.2645061092622734e-01  6.2318538024062420e-01  6.1955506123284743e-01  6.1529876505428438e-01  6.1006780041075814e-01  6.0340253246383413e-01  5.9470495757502306e-01  5.8321048925211283e-01  5.6797128978267630e-01  5.4788831899952239e-01  5.2189834432441162e-01  4.8958912460755877e-01  4.5251655440811883e-01  4.1557185499305199e-01  0.0000000000000000e+00  2.6682836846888727e-02  5.2758138428356235e-02  7.8234997005783902e-02  1.0312319676562454e-01  1.2743311057053217e-01  1.5117586251451590e-01  1.7436360712294258e-01  1.9700972800301750e-01  2.1912873305768391e-01  2.4073568674906570e-01  2.6184520394329497e-01  2.8247025657932995e-01  3.0262115225081287e-01  3.2230494391606590e-01  3.4152531013614246e-01  3.6028277376871093e-01  3.7857509043333226e-01  3.9639770303456751e-01  4.1374424322104270e-01  4.3060710293041643e-01  4.4697808214200208e-01  4.6284906708081558e-01  4.7821265134322621e-01  4.9306261409133934e-01  5.0739421352862280e-01  5.2120431110000565e-01  5.3449138160071263e-01  5.4725547424881726e-01  5.5949817507398725e-01  5.7122259324203040e-01  5.8243336263633894e-01  5.9313662190749150e-01  6.0333991874836124e-01  6.1305198696000751e-01  6.2228237482337367e-01  6.3104095496372603e-01  6.3933739697718206e-01  6.4718070597777144e-01  6.5457890927216744e-01  6.6153892250088331e-01  6.6806657446760820e-01  6.7416673928870385e-01  6.7984352048869501e-01  6.8510044543698156e-01  6.8994064768150754e-01  6.9436703045963610e-01  6.9838241339221474e-01  7.0198966640459814e-01  7.0519183248521022e-01  7.0799223668692690e-01  7.1039457519150562e-01  7.1240297698751276e-01  7.1402203257466457e-01  7.1525678900607836e-01  7.1611271759850204e-01  7.1659566822580545e-01  7.1671183030765662e-01  7.1646772337685305e-01  7.1587023784485571e-01  7.1492673882078539e-01  7.1364523392744850e-01  7.1203459323967022e-01  7.1010479988541664e-01  7.0786720672961179e-01  7.0533477864183436e-01  7.0252230909541036e-01  6.9944661056832924e-01  6.9612668662438337e-01  6.9258389663787823e-01  6.8884211968724784e-01  6.8492791075044568e-01  6.8087062030937451e-01  6.7670242224013100e-01  6.7245817516701190e-01  6.6817504452944798e-01  6.6389184674385948e-01  6.5964813466102323e-01  6.5548309401826521e-01  6.5143432808661739e-01  6.4753656074180332e-01  6.4382020993050437e-01  6.4030971248429458e-01  6.3702144432661256e-01  6.3396108290595998e-01  6.3112029272081138e-01  6.2847266550218517e-01  6.2596889380128695e-01  6.2353117797285951e-01  6.2104686379912954e-01  6.1836136194713653e-01  6.1527072116843073e-01  6.1151518051628551e-01  6.0677722512886800e-01  6.0069232419918150e-01  5.9289015312010729e-01  5.8310302509551137e-01  5.7140816187789489e-01  5.5867550842843050e-01  5.4715629873554272e-01  5.4083421335883153e-01  0.0000000000000000e+00  2.6653507229090431e-02  5.2704610613477434e-02  7.8162401192607533e-02  1.0303658678149749e-01  1.2733737478819754e-01  1.5107560615842097e-01  1.7426299273822066e-01  1.9691227205261413e-01  2.1903708291214605e-01  2.4065143448997209e-01  2.6176880571159633e-01  2.8240109801787550e-01  3.0255774453373085e-01  3.2224519077562963e-01  3.4146678122653035e-01  3.6022294523592407e-01  3.7851154317365676e-01  3.9632828434899708e-01  4.1366719629373067e-01  4.3052115936353075e-01  4.4688250668327234e-01  4.6274364730002565e-01  4.7809763681905448e-01  4.9293862188805504e-01  5.0726212197753817e-01  5.2106516046716256e-01  5.3434629175569515e-01  5.4710558078810256e-01  5.5934457934434834e-01  5.7106631884734715e-01  5.8227531070967331e-01  5.9297751923641051e-01  6.0318025672372522e-01  6.1289195500279747e-01  6.2212179792096356e-01  6.3087924835113351e-01  6.3917354923568459e-01  6.4701329495471438e-01  6.5440614656317297e-01  6.6135871605403129e-01  6.6787659739797967e-01  6.7396449548208692e-01  6.7962640166624522e-01  6.8486577791667125e-01  6.8968572910585280e-01  6.9408915731109611e-01  6.9807889980042370e-01  7.0165785428213578e-01  7.0482909294356766e-01  7.0759596318883178e-01  7.0996216985608074e-01  7.1193183249607850e-01  7.1350951275904984e-01  7.1470021107810933e-01  7.1550933799946537e-01  7.1594267246402343e-01  7.1600632542032316e-01  7.1570673044545452e-01  7.1505068186410148e-01  7.1404543437159895e-01  7.1269886722941767e-01  7.1101970351642962e-01  7.0901776472301836e-01  7.0670423671043081e-01  7.0409192599413983e-01  7.0119549382299995e-01  6.9803166602104005e-01  6.9461942511727681e-01  6.9098019484741380e-01  6.8713802373633359e-01  6.8311976332143165e-01  6.7895521851154317e-01  6.7467722670688557e-01  6.7032160732103852e-01  6.6592692583075908e-01  6.6153404392450788e-01  6.5718547346670475e-01  6.5292459408582004e-01  6.4879480539030931e-01  6.4483865494595338e-01  6.4109692807928265e-01  6.3760763549455091e-01  6.3440481423075124e-01  6.3151707580087280e-01  6.2896588889997251e-01  6.2676366233173653e-01  6.2491178288096316e-01  6.2339885471503265e-01  6.2219950672482205e-01  6.2127438129988466e-01  6.2057249097907841e-01  6.2003832232482370e-01  6.1962827962332490e-01  6.1934484642143894e-01  6.1930272818258725e-01  6.1984830304142036e-01  6.2175436424976249e-01  6.2648492029321545e-01  6.3644912815580368e-01  6.5507789717851861e-01  0.0000000000000000e+00  2.6617527800783636e-02  5.2639105368427211e-02  7.8073754976621765e-02  1.0293102251117942e-01  1.2722084634729219e-01  1.5095365793236759e-01  1.7414057395348154e-01  1.9679350941807966e-01  2.1892504281046798e-01  2.4054793591841858e-01  2.6167435280391987e-01  2.8231496928196753e-01  3.0247821964089466e-01  3.2216985284152577e-01  3.4139282764224865e-01  3.6014746499251216e-01  3.7843174806175439e-01  3.9624169729835956e-01  4.1357179994217569e-01  4.3041549996197848e-01  4.4676574340879616e-01  4.6261554124748594e-01  4.7795848570741578e-01  4.9278915835930998e-01  5.0710339827778916e-01  5.2089843866926067e-01  5.3417294995205755e-01  5.4692703657450514e-01  5.5916222542197291e-01  5.7088146249927996e-01  5.8208910899395871e-01  5.9279090467609274e-01  6.0299385380602699e-01  6.1270599491398403e-01  6.2193604511203882e-01  6.3069295430234540e-01  6.3898544412074709e-01  6.4682161837220520e-01  6.5420870876301807e-01  6.6115297562063358e-01  6.6765974155296448e-01  6.7373351327003173e-01  6.7937814537371077e-01  6.8459701198869438e-01  6.8939316779268500e-01  6.9376949259063292e-01  6.9772882054019580e-01  7.0127405690831857e-01  7.0440828361965024e-01  7.0713485188687553e-01  7.0945745761102708e-01  7.1138019420100862e-01  7.1290757861401899e-01  7.1404454984125898e-01  7.1479644431956191e-01  7.1516895892135590e-01  7.1516811790638424e-01  7.1480026383220741e-01  7.1407209223968438e-01  7.1299074489503722e-01  7.1156396682666401e-01  7.0980032057200260e-01  7.0770944063068997e-01  7.0530230574904884e-01  7.0259150811719817e-01  6.9959150582077467e-01  6.9631885472182353e-01  6.9279242448238965e-01  6.8903360758619836e-01  6.8506652817153302e-01  6.8091824882620267e-01  6.7661895942435490e-01  6.7220211633129268e-01  6.6770448971820429e-01  6.6316607978322906e-01  6.5862988450630311e-01  6.5414153758646976e-01  6.4974886947410171e-01  6.4550145788438118e-01  6.4145021883345477e-01  6.3764705552462653e-01  6.3414455280542370e-01  6.3099570025796003e-01  6.2825365758876284e-01  6.2597164134516692e-01  6.2420310461408790e-01  6.2300249212012382e-01  6.2242698276069397e-01  6.2253981270608660e-01  6.2341609143179544e-01  6.2515261984299197e-01  6.2788425179030560e-01  6.3181092830608820e-01  6.3724162315491806e-01  6.4466349132474399e-01  6.5484438185256777e-01  6.6896958287689623e-01  6.8879304498833571e-01  7.1675196300554012e-01  7.5597536514673225e-01  0.0000000000000000e+00  2.6574907261090564e-02  5.2561780843531407e-02  7.7969441390974406e-02  1.0280713445144311e-01  1.2708438212946011e-01  1.5081104339188031e-01  1.7399745910017650e-01  1.9665453008155670e-01  2.1879358570676005e-01  2.4042596949304548e-01  2.6156238703582546e-01  2.8221217383610930e-01  3.0238267722299844e-01  3.2207888653269168e-01  3.4130333735467794e-01  3.6005623107389478e-01  3.7833568729898720e-01  3.9613807188343875e-01  4.1345838081667402e-01  4.3029067968665413e-01  4.4662859002800093e-01  4.6246578910438002e-01  4.7779647019938698e-01  4.9261571248174613e-01  5.0691973323217387e-01  5.2070602728546023e-01  5.3397342320387353e-01  5.4672209440881980e-01  5.5895355649745249e-01  5.7067066438479075e-01  5.8187760100707764e-01  5.9257982965636458e-01  6.0278397210749246e-01  6.1249758193791226e-01  6.2172880937538721e-01  6.3048599269286321e-01  6.3877724346961429e-01  6.4661010082731329e-01  6.5399130828467478e-01  6.6092672854713652e-01  6.6742137606857421e-01  6.7347952811832557e-01  6.7910487401571729e-01  6.8430067251689919e-01  6.8906990074865260e-01  6.9341538889987742e-01  6.9733994095221308e-01  7.0084644342562297e-01  7.0393796295865296e-01  7.0661783124586541e-01  7.0888971382720622e-01  7.1075765842635341e-01  7.1222611947982883e-01  7.1329995829149373e-01  7.1398442261544548e-01  7.1428511476303480e-01  7.1420796250286567e-01  7.1375921068068060e-01  7.1294545210068783e-01  7.1177371262487099e-01  7.1025159760053092e-01  7.0838749621707142e-01  7.0619083032435070e-01  7.0367232807224822e-01  7.0084430258293839e-01  6.9772092140850561e-01  6.9431846115778806e-01  6.9065554985157362e-01  6.8675340424265541e-01  6.8263606877926197e-01  6.7833065683954052e-01  6.7386758465028351e-01  6.6928077718799972e-01  6.6460781863425422e-01  6.5989002362877280e-01  6.5517242298579703e-01  6.5050368541886860e-01  6.4593602443626819e-01  6.4152515417713807e-01  6.3733035389525505e-01  6.3341468487073205e-01  6.2984539170539566e-01  6.2669452848461193e-01  6.2403988855342662e-01  6.2196638545384086e-01  6.2056812661939664e-01  6.1995153508115652e-01  6.2024001217067859e-01  6.2158082442564289e-01  6.2415519897633354e-01  6.2819309443022564e-01  6.3399481679047742e-01  6.4196250817957679e-01  6.5264526495922626e-01  6.6680151027512591e-01  6.8547981473047759e-01  7.1011274493830889e-01  7.4260710549281195e-01  7.8540269140041963e-01  8.4147098480789650e-01  0.0000000000000000e+00  2.6525786136620183e-02  5.2473076927093444e-02  7.7850265680752997e-02  1.0266609316590002e-01  1.2692946869789470e-01  1.5064947856587158e-01  1.7383548253024825e-01  1.9649716690766664e-01  2.1864443297370953e-01  2.4028706206117334e-01  2.6143419600048390e-01  2.8209375651895391e-01  3.0227195207891883e-01  3.2197297536473873e-01  3.4119891548726761e-01  3.5994984621983112e-01  3.7822403151656275e-01  3.9601820477355204e-01  4.1332790367193378e-01  4.3014785579530490e-01  4.464724039