<?xml version="1.0"?>
<VTKFile type="UnstructuredGrid"  version="0.1"  >
<UnstructuredGrid>
<Piece  NumberOfPoints="20201" NumberOfCells="40000">
<Points>
<DataArray  type="Float64"  NumberOfComponents="3"  format="ascii">0 0 0  1 0 0  2 0 0  3 0 0  4 0 0  5 0 0  6 0 0  7 0 0  8 0 0  9 0 0  10 0 0  11 0 0  12 0 0  13 0 0  14 0 0  15 0 0  16 0 0  17 0 0  18 0 0  19 0 0  20 0 0  21 0 0  22 0 0  23 0 0  24 0 0  25 0 0  26 0 0  27 0 0  28 0 0  29 0 0  30 0 0  31 0 0  32 0 0  33 0 0  34 0 0  35 0 0  36 0 0  37 0 0  38 0 0  39 0 0  40 0 0  41 0 0  42 0 0  43 0 0  44 0 0  45 0 0  46 0 0  47 0 0  48 0 0  49 0 0  50 0 0  51 0 0  52 0 0  53 0 0  54 0 0  55 0 0  56 0 0  57 0 0  58 0 0  59 0 0  60 0 0  61 0 0  62 0 0  63 0 0  64 0 0  65 0 0  66 0 0  67 0 0  68 0 0  69 0 0  70 0 0  71 0 0  72 0 0  73 0 0  74 0 0  75 0 0  76 0 0  77 0 0  78 0 0  79 0 0  80 0 0  81 0 0  82 0 0  83 0 0  84 0 0  85 0 0  86 0 0  87 0 0  88 0 0  89 0 0  90 0 0  91 0 0  92 0 0  93 0 0  94 0 0  95 0 0  96 0 0  97 0 0  98 0 0  99 0 0  100 0 0  0 1 0  1 1 0  2 1 0  3 1 0  4 1 0  5 1 0  6 1 0  7 1 0  8 1 0  9 1 0  10 1 0  11 1 0  12 1 0  13 1 0  14 1 0  15 1 0  16 1 0  17 1 0  18 1 0  19 1 0  20 1 0  21 1 0  22 1 0  23 1 0  24 1 0  25 1 0  26 1 0  27 1 0  28 1 0  29 1 0  30 1 0  31 1 0  32 1 0  33 1 0  34 1 0  35 1 0  36 1 0  37 1 0  38 1 0  39 1 0  40 1 0  41 1 0  42 1 0  43 1 0  44 1 0  45 1 0  46 1 0  47 1 0  48 1 0  49 1 0  50 1 0  51 1 0  52 1 0  53 1 0  54 1 0  55 1 0  56 1 0  57 1 0  58 1 0  59 1 0  60 1 0  61 1 0  62 1 0  63 1 0  64 1 0  65 1 0  66 1 0  67 1 0  68 1 0  69 1 0  70 1 0  71 1 0  72 1 0  73 1 0  74 1 0  75 1 0  76 1 0  77 1 0  78 1 0  79 1 0  80 1 0  81 1 0  82 1 0  83 1 0  84 1 0  85 1 0  86 1 0  87 1 0  88 1 0  89 1 0  90 1 0  91 1 0  92 1 0  93 1 0  94 1 0  95 1 0  96 1 0  97 1 0  98 1 0  99 1 0  100 1 0  0 2 0  1 2 0  2 2 0  3 2 0  4 2 0  5 2 0  6 2 0  7 2 0  8 2 0  9 2 0  10 2 0  11 2 0  12 2 0  13 2 0  14 2 0  15 2 0  16 2 0  17 2 0  18 2 0  19 2 0  20 2 0  21 2 0  22 2 0  23 2 0  24 2 0  25 2 0  26 2 0  27 2 0  28 2 0  29 2 0  30 2 0  31 2 0  32 2 0  33 2 0  34 2 0  35 2 0  36 2 0  37 2 0  38 2 0  39 2 0  40 2 0  41 2 0  42 2 0  43 2 0  44 2 0  45 2 0  46 2 0  47 2 0  48 2 0  49 2 0  50 2 0  51 2 0  52 2 0  53 2 0  54 2 0  55 2 0  56 2 0  57 2 0  58 2 0  59 2 0  60 2 0  61 2 0  62 2 0  63 2 0  64 2 0  65 2 0  66 2 0  67 2 0  68 2 0  69 2 0  70 2 0  71 2 0  72 2 0  73 2 0  74 2 0  75 2 0  76 2 0  77 2 0  78 2 0  79 2 0  80 2 0  81 2 0  82 2 0  83 2 0  84 2 0  85 2 0  86 2 0  87 2 0  88 2 0  89 2 0  90 2 0  91 2 0  92 2 0  93 2 0  94 2 0  95 2 0  96 2 0  97 2 0  98 2 0  99 2 0  100 2 0  0 3 0  1 3 0  2 3 0  3 3 0  4 3 0  5 3 0  6 3 0  7 3 0  8 3 0  9 3 0  10 3 0  11 3 0  12 3 0  13 3 0  14 3 0  15 3 0  16 3 0  17 3 0  18 3 0  19 3 0  20 3 0  21 3 0  22 3 0  23 3 0  24 3 0  25 3 0  26 3 0  27 3 0  28 3 0  29 3 0  30 3 0  31 3 0  32 3 0  33 3 0  34 3 0  35 3 0  36 3 0  37 3 0  38 3 0  39 3 0  40 3 0  41 3 0  42 3 0  43 3 0  44 3 0  45 3 0  46 3 0  47 3 0  48 3 0  49 3 0  50 3 0  51 3 0  52 3 0  53 3 0  54 3 0  55 3 0  56 3 0  57 3 0  58 3 0  59 3 0  60 3 0  61 3 0  62 3 0  63 3 0  64 3 0  65 3 0  66 3 0  67 3 0  68 3 0  69 3 0  70 3 0  71 3 0  72 3 0  73 3 0  74 3 0  75 3 0  76 3 0  77 3 0  78 3 0  79 3 0  80 3 0  81 3 0  82 3 0  83 3 0  84 3 0  85 3 0  86 3 0  87 3 0  88 3 0  89 3 0  90 3 0  91 3 0  92 3 0  93 3 0  94 3 0  95 3 0  96 3 0  97 3 0  98 3 0  99 3 0  100 3 0  0 4 0  1 4 0  2 4 0  3 4 0  4 4 0  5 4 0  6 4 0  7 4 0  8 4 0  9 4 0  10 4 0  11 4 0  12 4 0  13 4 0  14 4 0  15 4 0  16 4 0  17 4 0  18 4 0  19 4 0  20 4 0  21 4 0  22 4 0  23 4 0  24 4 0  25 4 0  26 4 0  27 4 0  28 4 0  29 4 0  30 4 0  31 4 0  32 4 0  33 4 0  34 4 0  35 4 0  36 4 0  37 4 0  38 4 0  39 4 0  40 4 0  41 4 0  42 4 0  43 4 0  44 4 0  45 4 0  46 4 0  47 4 0  48 4 0  49 4 0  50 4 0  51 4 0  52 4 0  53 4 0  54 4 0  55 4 0  56 4 0  57 4 0  58 4 0  59 4 0  60 4 0  61 4 0  62 4 0  63 4 0  64 4 0  65 4 0  66 4 0  67 4 0  68 4 0  69 4 0  70 4 0  71 4 0  72 4 0  73 4 0  74 4 0  75 4 0  76 4 0  77 4 0  78 4 0  79 4 0  80 4 0  81 4 0  82 4 0  83 4 0  84 4 0  85 4 0  86 4 0  87 4 0  88 4 0  89 4 0  90 4 0  91 4 0  92 4 0  93 4 0  94 4 0  95 4 0  96 4 0  97 4 0  98 4 0  99 4 0  100 4 0  0 5 0  1 5 0  2 5 0  3 5 0  4 5 0  5 5 0  6 5 0  7 5 0  8 5 0  9 5 0  10 5 0  11 5 0  12 5 0  13 5 0  14 5 0  15 5 0  16 5 0  17 5 0  18 5 0  19 5 0  20 5 0  21 5 0  22 5 0  23 5 0  24 5 0  25 5 0  26 5 0  27 5 0  28 5 0  29 5 0  30 5 0  31 5 0  32 5 0  33 5 0  34 5 0  35 5 0  36 5 0  37 5 0  38 5 0  39 5 0  40 5 0  41 5 0  42 5 0  43 5 0  44 5 0  45 5 0  46 5 0  47 5 0  48 5 0  49 5 0  50 5 0  51 5 0  52 5 0  53 5 0  54 5 0  55 5 0  56 5 0  57 5 0  58 5 0  59 5 0  60 5 0  61 5 0  62 5 0  63 5 0  64 5 0  65 5 0  66 5 0  67 5 0  68 5 0  69 5 0  70 5 0  71 5 0  72 5 0  73 5 0  74 5 0  75 5 0  76 5 0  77 5 0  78 5 0  79 5 0  80 5 0  81 5 0  82 5 0  83 5 0  84 5 0  85 5 0  86 5 0  87 5 0  88 5 0  89 5 0  90 5 0  91 5 0  92 5 0  93 5 0  94 5 0  95 5 0  96 5 0  97 5 0  98 5 0  99 5 0  100 5 0  0 6 0  1 6 0  2 6 0  3 6 0  4 6 0  5 6 0  6 6 0  7 6 0  8 6 0  9 6 0  10 6 0  11 6 0  12 6 0  13 6 0  14 6 0  15 6 0  16 6 0  17 6 0  18 6 0  19 6 0  20 6 0  21 6 0  22 6 0  23 6 0  24 6 0  25 6 0  26 6 0  27 6 0  28 6 0  29 6 0  30 6 0  31 6 0  32 6 0  33 6 0  34 6 0  35 6 0  36 6 0  37 6 0  38 6 0  39 6 0  40 6 0  41 6 0  42 6 0  43 6 0  44 6 0  45 6 0  46 6 0  47 6 0  48 6 0  49 6 0  50 6 0  51 6 0  52 6 0  53 6 0  54 6 0  55 6 0  56 6 0  57 6 0  58 6 0  59 6 0  60 6 0  61 6 0  62 6 0  63 6 0  64 6 0  65 6 0  66 6 0  67 6 0  68 6 0  69 6 0  70 6 0  71 6 0  72 6 0  73 6 0  74 6 0  75 6 0  76 6 0  77 6 0  78 6 0  79 6 0  80 6 0  81 6 0  82 6 0  83 6 0  84 6 0  85 6 0  86 6 0  87 6 0  88 6 0  89 6 0  90 6 0  91 6 0  92 6 0  93 6 0  94 6 0  95 6 0  96 6 0  97 6 0  98 6 0  99 6 0  100 6 0  0 7 0  1 7 0  2 7 0  3 7 0  4 7 0  5 7 0  6 7 0  7 7 0  8 7 0  9 7 0  10 7 0  11 7 0  12 7 0  13 7 0  14 7 0  15 7 0  16 7 0  17 7 0  18 7 0  19 7 0  20 7 0  21 7 0  22 7 0  23 7 0  24 7 0  25 7 0  26 7 0  27 7 0  28 7 0  29 7 0  30 7 0  31 7 0  32 7 0  33 7 0  34 7 0  35 7 0  36 7 0  37 7 0  38 7 0  39 7 0  40 7 0  41 7 0  42 7 0  43 7 0  44 7 0  45 7 0  46 7 0  47 7 0  48 7 0  49 7 0  50 7 0  51 7 0  52 7 0  53 7 0  54 7 0  55 7 0  56 7 0  57 7 0  58 7 0  59 7 0  60 7 0  61 7 0  62 7 0  63 7 0  64 7 0  65 7 0  66 7 0  67 7 0  68 7 0  69 7 0  70 7 0  71 7 0  72 7 0  73 7 0  74 7 0  75 7 0  76 7 0  77 7 0  78 7 0  79 7 0  80 7 0  81 7 0  82 7 0  83 7 0  84 7 0  85 7 0  86 7 0  87 7 0  88 7 0  89 7 0  90 7 0  91 7 0  92 7 0  93 7 0  94 7 0  95 7 0  96 7 0  97 7 0  98 7 0  99 7 0  100 7 0  0 8 0  1 8 0  2 8 0  3 8 0  4 8 0  5 8 0  6 8 0  7 8 0  8 8 0  9 8 0  10 8 0  11 8 0  12 8 0  13 8 0  14 8 0  15 8 0  16 8 0  17 8 0  18 8 0  19 8 0  20 8 0  21 8 0  22 8 0  23 8 0  24 8 0  25 8 0  26 8 0  27 8 0  28 8 0  29 8 0  30 8 0  31 8 0  32 8 0  33 8 0  34 8 0  35 8 0  36 8 0  37 8 0  38 8 0  39 8 0  40 8 0  41 8 0  42 8 0  43 8 0  44 8 0  45 8 0  46 8 0  47 8 0  48 8 0  49 8 0  50 8 0  51 8 0  52 8 0  53 8 0  54 8 0  55 8 0  56 8 0  57 8 0  58 8 0  59 8 0  60 8 0  61 8 0  62 8 0  63 8 0  64 8 0  65 8 0  66 8 0  67 8 0  68 8 0  69 8 0  70 8 0  71 8 0  72 8 0  73 8 0  74 8 0  75 8 0  76 8 0  77 8 0  78 8 0  79 8 0  80 8 0  81 8 0  82 8 0  83 8 0  84 8 0  85 8 0  86 8 0  87 8 0  88 8 0  89 8 0  90 8 0  91 8 0  92 8 0  93 8 0  94 8 0  95 8 0  96 8 0  97 8 0  98 8 0  99 8 0  100 8 0  0 9 0  1 9 0  2 9 0  3 9 0  4 9 0  5 9 0  6 9 0  7 9 0  8 9 0  9 9 0  10 9 0  11 9 0  12 9 0  13 9 0  14 9 0  15 9 0  16 9 0  17 9 0  18 9 0  19 9 0  20 9 0  21 9 0  22 9 0  23 9 0  24 9 0  25 9 0  26 9 0  27 9 0  28 9 0  29 9 0  30 9 0  31 9 0  32 9 0  33 9 0  34 9 0  35 9 0  36 9 0  37 9 0  38 9 0  39 9 0  40 9 0  41 9 0  42 9 0  43 9 0  44 9 0  45 9 0  46 9 0  47 9 0  48 9 0  49 9 0  50 9 0  51 9 0  52 9 0  53 9 0  54 9 0  55 9 0  56 9 0  57 9 0  58 9 0  59 9 0  60 9 0  61 9 0  62 9 0  63 9 0  64 9 0  65 9 0  66 9 0  67 9 0  68 9 0  69 9 0  70 9 0  71 9 0  72 9 0  73 9 0  74 9 0  75 9 0  76 9 0  77 9 0  78 9 0  79 9 0  80 9 0  81 9 0  82 9 0  83 9 0  84 9 0  85 9 0  86 9 0  87 9 0  88 9 0  89 9 0  90 9 0  91 9 0  92 9 0  93 9 0  94 9 0  95 9 0  96 9 0  97 9 0  98 9 0  99 9 0  100 9 0  0 10 0  1 10 0  2 10 0  3 10 0  4 10 0  5 10 0  6 10 0  7 10 0  8 10 0  9 10 0  10 10 0  11 10 0  12 10 0  13 10 0  14 10 0  15 10 0  16 10 0  17 10 0  18 10 0  19 10 0  20 10 0  21 10 0  22 10 0  23 10 0  24 10 0  25 10 0  26 10 0  27 10 0  28 10 0  29 10 0  30 10 0  31 10 0  32 10 0  33 10 0  34 10 0  35 10 0  36 10 0  37 10 0  38 10 0  39 10 0  40 10 0  41 10 0  42 10 0  43 10 0  44 10 0  45 10 0  46 10 0  47 10 0  48 10 0  49 10 0  50 10 0  51 10 0  52 10 0  53 10 0  54 10 0  55 10 0  56 10 0  57 10 0  58 10 0  59 10 0  60 10 0  61 10 0  62 10 0  63 10 0  64 10 0  65 10 0  66 10 0  67 10 0  68 10 0  69 10 0  70 10 0  71 10 0  72 10 0  73 10 0  74 10 0  75 10 0  76 10 0  77 10 0  78 10 0  79 10 0  80 10 0  81 10 0  82 10 0  83 10 0  84 10 0  85 10 0  86 10 0  87 10 0  88 10 0  89 10 0  90 10 0  91 10 0  92 10 0  93 10 0  94 10 0  95 10 0  96 10 0  97 10 0  98 10 0  99 10 0  100 10 0  0 11 0  1 11 0  2 11 0  3 11 0  4 11 0  5 11 0  6 11 0  7 11 0  8 11 0  9 11 0  10 11 0  11 11 0  12 11 0  13 11 0  14 11 0  15 11 0  16 11 0  17 11 0  18 11 0  19 11 0  20 11 0  21 11 0  22 11 0  23 11 0  24 11 0  25 11 0  26 11 0  27 11 0  28 11 0  29 11 0  30 11 0  31 11 0  32 11 0  33 11 0  34 11 0  35 11 0  36 11 0  37 11 0  38 11 0  39 11 0  40 11 0  41 11 0  42 11 0  43 11 0  44 11 0  45 11 0  46 11 0  47 11 0  48 11 0  49 11 0  50 11 0  51 11 0  52 11 0  53 11 0  54 11 0  55 11 0  56 11 0  57 11 0  58 11 0  59 11 0  60 11 0  61 11 0  62 11 0  63 11 0  64 11 0  65 11 0  66 11 0  67 11 0  68 11 0  69 11 0  70 11 0  71 11 0  72 11 0  73 11 0  74 11 0  75 11 0  76 11 0  77 11 0  78 11 0  79 11 0  80 11 0  81 11 0  82 11 0  83 11 0  84 11 0  85 11 0  86 11 0  87 11 0  88 11 0  89 11 0  90 11 0  91 11 0  92 11 0  93 11 0  94 11 0  95 11 0  96 11 0  97 11 0  98 11 0  99 11 0
[...]
<PointData  Scalars="f_3357-2"> 
<DataArray  type="Float64"  Name="f_3357-2"  format="ascii">0.0000000000000000e+00  2.6713528370800172e-02  5.2815978131476010e-02  7.8317527900774481e-02  1.0322945711748049e-01  1.2756409836667995e-01  1.5133465412770078e-01  1.7455486231825584e-01  1.9723856907340984e-01  2.1939925735228100e-01  2.4104956899824140e-01  2.6220085719550862e-01  2.8286280373341904e-01  3.0304312687644053e-01  3.2274739450953138e-01  3.4197894768115422e-01  3.6073893321741296e-01  3.7902644010444597e-01  3.9683873138199105e-01  4.1417156005624228e-01  4.3101955338708603e-01  4.4737664508335695e-01  4.6323653052463865e-01  4.7859311758080691e-01  4.9344094604195643e-01  5.0777555225739279e-01  5.2159376141535363e-01  5.3489389653268982e-01  5.4767589939722716e-01  5.5994136377807113e-01  5.7169348520740537e-01  5.8293693493712651e-01  5.9367766871842675e-01  6.0392268405113414e-01  6.1367974235880673e-01  6.2295707469780337e-01  6.3176309049816570e-01  6.4010610799950540e-01  6.4799412241208709e-01  6.5543462377884742e-01  6.6243447171360037e-01  6.6899982935268776e-01  6.7513615450614317e-01  6.8084824239763908e-01  6.8614031161035827e-01  6.9101612289331249e-01  6.9547911931799822e-01  6.9953257593237517e-01  7.0317974757594170e-01  7.0642400490077251e-01  7.0926895081633012e-01  7.1171851237311867e-01  7.1377700627261409e-01  7.1544917944359776e-01  7.1674022915964641e-01  7.1765580972142351e-01  7.1820203457441789e-01  7.1838548372206501e-01  7.1821322633201234e-01  7.1769286748732064e-01  7.1683262613459098e-01  7.1564144852456957e-01  7.1412915799995458e-01  7.1230663811080708e-01  7.1018604204616675e-01  7.0778101760103740e-01  7.0510693364762933e-01  7.0218109153111419e-01  6.9902290298757941e-01  6.9565401495969004e-01  6.9209836084837417e-01  6.8838211706919050e-01  6.8453354313580217e-01  6.8058268281987189e-01  6.7656090320922735e-01  6.7250024752158144e-01  6.6843257574635351e-01  6.6438846340814639e-01  6.6039582122881857e-01  6.5647818518343426e-01  6.5265260545453374e-01  6.4892703233286619e-01  6.4529705521406977e-01  6.4174179440303003e-01  6.3821866903126612e-01  6.3465665875428023e-01  6.3094752678552446e-01  6.2693425240871981e-01  6.2239559132713640e-01  6.1702517199069717e-01  6.1040272038344112e-01  6.0195364882415170e-01  5.9089087265972806e-01  5.7612831847062174e-01  5.5614682539400340e-01  5.2877411496059512e-01  4.9079421978864374e-01  4.3717013737384036e-01  3.5919369054144434e-01  2.3841728622011685e-01  0.0000000000000000e+00  0.0000000000000000e+00  2.6709856883397845e-02  5.2809513384000299e-02  7.8309063993514019e-02  1.0321968686424605e-01  1.2755360993764253e-01  1.5132393027299551e-01  1.7454427983429874e-01  1.9722839986933149e-01  2.1938967245067884e-01  2.4104064587326260e-01  2.6219259015396124e-01  2.8285511666210456e-01  3.0303588752754884e-01  3.2274042952028331e-01  3.4197205764839356e-01  3.6073190728398125e-01  3.7901906960241510e-01  3.9683082210500736e-01  4.1416294272330734e-01  4.3101009185723760e-01  4.4736624193124358e-01  4.6322512971923152e-01  4.7858070421699156e-01  4.9342754331504685e-01  5.0776121608502689e-01  5.2157857325403501e-01  5.3487795499335355e-01  5.4765931125116907e-01  5.5992423489034227e-01  5.7167591186507849e-01  5.8291899596895413e-01  5.9365941873339079e-01  6.0390414805266091e-01  6.1366091191392458e-01  6.2293790575347319e-01  6.3174350284184921e-01  6.4008598626357682e-01  6.4797331843058459e-01  6.5541296002934768e-01  6.6241174552356297e-01  6.6897581752196866e-01  6.7511061799583982e-01  6.8082093075835115e-01  6.8611096686777207e-01  6.9098448267250268e-01  6.9544491906552586e-01  6.9949555018081633e-01  7.0313963028074777e-01  7.0638052895545433e-01  7.0922184691101919e-01  7.1166750739838536e-01  7.1372182148327667e-01  7.1538952858758442e-01  7.1667581674850500e-01  7.1758632957688717e-01  7.1812716873527571e-01  7.1830490174366945e-01  7.1812658496357729e-01  7.1759981067625089e-01  7.1673278528849871e-01  7.1553444296536972e-01  7.1401459557396063e-01  7.1218411597585163e-01  7.1005514774187140e-01  7.0764133062125600e-01  7.0495802787507345e-01  7.0202253906524514e-01  6.9885428010291284e-01  6.9547491118136417e-01  6.9190839243777358e-01  6.8818094659018392e-01  6.8432090723813965e-01  6.8035843094506165e-01  6.7632505060823289e-01  6.7225304678981646e-01  6.6817461206786188e-01  6.6412077994211882e-01  6.6012008272299705e-01  6.5619689020057004e-01  6.5236936088187658e-01  6.4864690855584073e-01  6.4502704709803138e-01  6.4149142298380457e-01  6.3800077307290548e-01  6.3448844658339643e-01  6.3085199128520819e-01  6.2694210313356158e-01  6.2254794070491559e-01  6.1737735248790249e-01  6.1102985532716203e-01  6.0295905256813798e-01  5.9241923866853052e-01  5.7838749367510189e-01  5.5944612800799887e-01  5.3359755827154653e-01  4.9795667743808025e-01  4.4820545650306348e-01  3.7756782806209777e-01  2.7514817772111100e-01  1.4237172979226365e-01  0.0000000000000000e+00  2.6698852853957556e-02  5.2790129063669103e-02  7.8283663817329055e-02  1.0319033417929895e-01  1.2752205790918503e-01  1.5129161929068943e-01  1.7451233592595064e-01  1.9719763798947862e-01  2.1936060835081145e-01  2.4101351769783486e-01  2.6216738897012087e-01  2.8283162403544648e-01  3.0301371778203173e-01  3.2271907433435559e-01  3.4195093094843393e-01  3.6071038875990613e-01  3.7899654541993572e-01  3.9680672148243423e-01  4.1413676904144575e-01  4.3098144699986396e-01  4.4733484273612384e-01  4.6319081582759486e-01  4.7854343721744064e-01  4.9338739776442964e-01  5.0771836359275757e-01  5.2153326121621724e-01  5.3483048172493475e-01  5.4760999923397002e-01  5.5987340371251459e-01  5.7162385224328782e-01  5.8286594605547315e-01  5.9360554372119390e-01  6.0384952388832980e-01  6.1360551369317806e-01  6.2288160109954138e-01  6.3168605026142788e-01  6.4002703816350315e-01  6.4791242819389450e-01  6.5534959232266410e-01  6.6234528885820310e-01  6.6890559802421434e-01  6.7503591335255841e-01  6.8074098338314137e-01  6.8602499547023166e-01  6.9089169159952346e-01  6.9534450500708733e-01  6.9938670607728159e-01  7.0302154651266524e-01  7.0625239211617374e-01  7.0908283663489369e-01  7.1151679182748240e-01  7.1355855199710694e-01  7.1521283439618277e-01  7.1648479986899394e-01  7.1738006059157111e-01  7.1790468358207460e-01  7.1806519963564941e-01  7.1786862739284252e-01  7.1732252134812657e-01  7.1643505077327507e-01  7.1521511386273040e-01  7.1367248807121042e-01  7.1181801385180044e-01  7.0966380512554172e-01  7.0722347615724179e-01  7.0451237137424960e-01  7.0154778223367553e-01  6.9834913355470407e-01  6.9493812067590299e-01  6.9133877817369849e-01  6.8757746048295365e-01  6.8368271445452089e-01  6.7968502361277627e-01  6.7561640360535791e-01  6.7150982790283675e-01  6.6739846170380523e-01  6.6331467922822518e-01  6.5928883365913504e-01  6.5534773821474201e-01  6.5151279961131603e-01  6.4779772019435100e-01  6.4420565097479165e-01  6.4072563280274963e-01  6.3732810360759629e-01  6.3395917040227556e-01  6.3053323671120831e-01  6.2692342582632987e-01  6.2294902800579555e-01  6.1835889642203956e-01  6.1280928040353944e-01  6.0583395633489712e-01  5.9680362264002562e-01  5.8487031856258764e-01  5.6889130889889516e-01  5.4732687163427618e-01  5.1811460001471143e-01  4.7857156574283066e-01  4.2563151903150759e-01  3.5812295462717481e-01  2.8184285212220994e-01  0.0000000000000000e+00  2.6680592347237454e-02  5.2757935797601033e-02  7.8241421242153858e-02  1.0314143256626193e-01  1.2746938155392573e-01  1.5123754159485267e-01  1.7445871682652328e-01  1.9714582968683500e-01  2.1931147474978666e-01  2.4096746928332155e-01  2.6212443201223617e-01  2.8279142133460317e-01  3.0297565733691584e-01  3.2268234220149067e-01  3.4191458491914412e-01  3.6067342997245888e-01  3.7895798539817072e-01  3.9676564227330391e-01  4.1409237419722444e-01  4.3093310128805890e-01  4.4728209883475967e-01  4.6313342696407822e-01  4.7848135568105160e-01  4.9332076027932020e-01  5.0764746544920780e-01  5.2145852165754902e-01  5.3475240333781593e-01  5.4752912406318133e-01  5.5979026863493409e-01  5.7153894588861209e-01  5.8277966930142500e-01  5.9351817551730213e-01  6.0376119384392957e-01  6.1351618246865558e-01  6.2279104915373495e-01  6.3159387495707175e-01  6.3993265867388371e-01  6.4781509715795604e-01  6.5524841282101254e-01  6.6223923505778115e-01  6.6879353776309247e-01  6.7491663098735766e-01  6.8061320137458448e-01  6.8588739341622129e-01  6.9074292172415319e-01  6.9518320346251672e-01  6.9921149979234964e-01  7.0283105569854032e-01  7.0604522888102783e-01  7.0885760043342871e-01  7.1127206265202303e-01  7.1329288229249099e-01  7.1492474065200562e-01  7.1617275472258057e-01  7.1704248608426158e-01  7.1753994597623716e-01  7.1767160594985380e-01  7.1744442357947535e-01  7.1686589185377392e-01  7.1594411911880029e-01  7.1468794388517243e-01  7.1310708560553460e-01  7.1121232891096020e-01  7.0901573506674420e-01  7.0653087089740352e-01  7.0377304243202210e-01  7.0075951822733240e-01  6.9750972578589421e-01  6.9404540360965139e-01  6.9039069103771422e-01  6.8657213792519678e-01  6.8261861629789777e-01  6.7856111631118587e-01  6.7443240911746094e-01  6.7026655946283542e-01  6.6609827056745630e-01  6.6196204226566391e-01  6.5789111928408373e-01  6.5391619855834882e-01  6.5006385144114387e-01  6.4635459770478232e-01  6.4280054281435750e-01  6.3940245734452283e-01  6.3614613637110295e-01  6.3299782508492364e-01  6.2989843187913030e-01  6.2675616876840690e-01  6.2343715994063686e-01  6.1975344752178652e-01  6.1544772160258354e-01  6.1017407608654761e-01  6.0347432374029786e-01  5.9475037559621013e-01  5.8323621783357427e-01  5.6798178164767421e-01  5.4788588056727161e-01  5.2188454075244606e-01  4.8956776093693982e-01  4.5249732805721976e-01  4.1557185499305199e-01  0.0000000000000000e+00  2.6655294524733988e-02  5.2713287976511827e-02  7.8182744336655008e-02  1.0307337421340960e-01  1.2739590094044748e-01  1.5116190184323691e-01  1.7438348159474976e-01  1.9707287157637957e-01  2.1924200198123578e-01  2.4090207274176814e-01  2.6206315138748104e-01  2.8273382694689664e-01  3.0292094306256673e-01  3.2262942458775951e-01  3.4186220386720695e-01  3.6062024689116856e-01  3.7890267518336346e-01  3.9670697574498398e-01  4.1402928781945830e-01  4.3086475129915286e-01  4.4720789752030266e-01  4.6305305979583122e-01  4.7839477933316910e-01  4.9322818288699843e-01  5.0754931162251571e-01  5.2135538552073535e-01  5.3464499319807357e-01  5.4741820231441407e-01  5.5967659031132899e-01  5.7142319901397276e-01  5.8266241988433409e-01  5.9339981970759703e-01  6.0364191934397948e-01  6.1339594073529891e-01  6.2266953922194013e-01  6.3147053890985749e-01  6.3980668796993134e-01  6.4768544832035058e-01  6.5511383047473237e-01  6.6209828001645510e-01  6.6864461779414797e-01  6.7475803198765050e-01  6.8044311692076920e-01  6.8570395098109194e-01  6.9054420424938079e-01  6.9496726543136100e-01  6.9897637743012098e-01  7.0257477141157465e-01  7.0576579048682586e-01  7.0855299609462474e-01  7.1094025267184591e-01  7.1293178904037147e-01  7.1453223786270603e-01  7.1574665726395081e-01  7.1658054104285940e-01  7.1703982560046231e-01  7.1713090265624924e-01  7.1686064691202767e-01  7.1623646703247690e-01  7.1526638666598219e-01  7.1395915981649460e-01  7.1232442185058509e-01  7.1037287400832161e-01  7.0811649576840219e-01  7.0556877611166779e-01  7.0274495191910258e-01  6.9966223962679464e-01  6.9634004490602297e-01  6.9280013447758981e-01  6.8906675405903761e-01  6.8516667672186737e-01  6.8112916649033184e-01  6.7698584279528295e-01  6.7277043237800405e-01  6.6851839630767129e-01  6.6426642060253482e-01  6.6005175889308554e-01  6.5591141373382278e-01  6.5188113859724583e-01  6.4799423454226612e-01  6.4428010376815181e-01  6.4076250695541981e-01  6.3745745301924073e-01  6.3437062948904932e-01  6.3149426052578550e-01  6.2880326036418177e-01  6.2625053898457006e-01  6.2376132809883855e-01  6.2122645954395062e-01  6.1849470965539921e-01  6.1536475820556436e-01  6.1157828479975263e-01  6.0681784371510616e-01  6.0071770099159694e-01  5.9290539126593411e-01  5.8311074296233645e-01  5.7140914737972248e-01  5.5867074542052586e-01  5.4714979052865742e-01  5.4083421335883153e-01  0.0000000000000000e+00  2.6623357568724193e-02  5.2656855848089601e-02  7.8108464454026888e-02  1.0298705674028101e-01  1.2730250118807540e-01  1.5106550974096583e-01  1.7428731767176364e-01  1.9697929821566629e-01  2.1915255693167771e-01  2.4081752718936439e-01  2.6198359120844522e-01  2.8265875330863588e-01  3.0284938705799425e-01  3.2256007003083748e-01  3.4179351253356788e-01  3.6055058097265674e-01  3.7883041221096070e-01  3.9663061159952673e-01  4.1394752377741317e-01  4.3077656154895239e-01  4.4711257442240637e-01  4.6295023541326197e-01  4.7828442331358473e-01  4.9311057837074784e-01  5.0742501219290592e-01  5.2122515711165862e-01  5.3450974529979101e-01  5.4727891287164698e-01  5.5953422853905999e-01  5.7127865008649570e-01  5.8251641513276353e-01  5.9325287557035056e-01  6.0349428779279857e-01  6.1324757318956569e-01  6.2252006505854618e-01  6.3131925863981908e-01  6.3965258011326098e-01  6.4752718811249399e-01  6.5494981789170115e-01  6.6192667425537466e-01  6.6846337527060540e-01  6.7456494505367703e-01  6.8023585080562032e-01  6.8548007686386969e-01  6.9030122685762729e-01  6.9470264410089633e-01  6.9868754013367274e-01  7.0225912183279915e-01  7.0542070873884088e-01  7.0817583411244145e-01  7.1052832560708101e-01  7.1248236412993782e-01  7.1404252222508191e-01  7.1521378590993212e-01  7.1600156610071064e-01  7.1641170738777615e-01  7.1645050282976819e-01  7.1612472354388912e-01  7.1544167115072077e-01  7.1440925961269353e-01  7.1303613076959560e-01  7.1133180506849858e-01  7.0930686582061309e-01  7.0697317206187527e-01  7.0434409204287107e-01  7.0143474680051965e-01  6.9826225136540432e-01  6.9484594001706668e-01  6.9120756158220997e-01  6.8737143096799791e-01  6.8336452380774648e-01  6.7921650217776819e-01  6.7495966078321668e-01  6.7062878478872812e-01  6.6626091250826958e-01  6.6189499823467624e-01  6.5757147214117939e-01  6.5333169482800113e-01  6.4921730315074067e-01  6.4526944118330110e-01  6.4152786579460230e-01  6.3802991126421471e-01  6.3480929324259527e-01  6.3189473167133903e-01  6.2930837895836156e-01  6.2706406044977669e-01  6.2516538108033715e-01  6.2360384712108674e-01  6.2235733598395215e-01  6.2138959507855618e-01  6.2065209884427863e-01  6.2009078238561055e-01  6.1966230791324328e-01  6.1936821953091270e-01  6.1932120334136131e-01  6.1986482717370739e-01  6.2176896065987897e-01  6.2649576822749087e-01  6.3645463651567113e-01  6.5507789717851861e-01  0.0000000000000000e+00  2.6585351647365345e-02  5.2589618664005126e-02  7.8019829830901125e-02  1.0288387719241654e-01  1.2719062718710722e-01  1.5094977606416757e-01  1.7417153893341625e-01  1.9686628297042241e-01  2.1904414743884651e-01  2.4071466718361592e-01  2.6188642023212394e-01  2.8256672349624540e-01  3.0276139654335793e-01  3.2247460636801428e-01  3.4170879950966965e-01  3.6046472258350587e-01  3.7874152804752320e-01  3.9653695832630798e-01  4.1384759784488800e-01  4.3066917895323015e-01  4.4699692437685162e-01  4.6282590627310366e-01  4.7815140086087782e-01  4.9296921834994101e-01  5.0727599049183381e-01  5.2106940201660257e-01  5.3434835678430970e-01  5.4711307400624365e-01  5.5936511398188082e-01  5.7110733635528710e-01  5.8234379701506989e-01  5.9307959257969800e-01  6.0332066395938366e-01  6.1307357262845152e-01  6.2234526468592322e-01  6.3114283818849204e-01  6.3947332837905380e-01  6.4734352330894396e-01  6.5475981922723014e-01  6.6172812142634796e-01  6.6825379246379213e-01  6.7434164620801174e-01  6.7999598322340549e-01  6.8522066072775978e-01  6.9001918876297008e-01  6.9439484332524537e-01  6.9835078700793962e-01  7.0189018821480542e-01  7.0501633117439588e-01  7.0773271075295874e-01  7.1004310829368977e-01  7.1195164722410076e-01  7.1346282975657160e-01  7.1458155843672877e-01  7.1531314836194948e-01  7.1566333742392174e-01  7.1563830279667962e-01  7.1524469201796825e-01  7.1448967637241423e-01  7.1338103290709343e-01  7.1192725937462553e-01  7.1013772384391327e-01  7.0802284784067948e-01  7.0559431892595392e-01  7.0286532586307471e-01  6.9985080721929127e-01  6.9656770259098921e-01  6.9303519473075559e-01  6.8927493068993173e-01  6.8531121060233458e-01  6.8117113383274119e-01  6.7688469382999161e-01  6.7248481513223068e-01  6.6800732856305733e-01  6.6349088368865583e-01  6.5897680093628941e-01  6.5450886914176032e-01  6.5013309737593683e-01  6.4589743248039921e-01  6.4185145593528814e-01  6.3804607616163378e-01  6.3453323652776716e-01  6.3136566747518430e-01  6.2859672677368317e-01  6.2628040025114662e-01  6.2447158479520049e-01  6.2322685966770341e-01  6.2260609382953058e-01  6.2267547329835127e-01  6.2351292361867428e-01  6.2521754058996015e-01  6.2792565522305865e-01  6.3183768196006462e-01  6.3726194628091937e-01  6.4468373914763977e-01  6.5486783155770656e-01  6.6899560253497803e-01  6.8881730512957673e-01  7.1676786968087569e-01  7.5597536514673225e-01  0.0000000000000000e+00  2.6541999356790212e-02  5.2512830834676054e-02  7.7918459239342985e-02  1.0276567455507139e-01  1.2706221661905626e-01  1.5081663803296944e-01  1.7403800535063663e-01  1.9673555390078848e-01  2.1891833624256163e-01  2.4059487635721508e-01  2.6177284647290594e-01  2.8245878774431749e-01  3.0265789286067002e-01  3.2237386253293682e-01  3.4160884200221092e-01  3.6036343889505612e-01  3.7863681967976798e-01  3.9642687832359241e-01  4.1373046728771468e-01  4.3054367768196405e-01  4.4686215245260552e-01  4.6268141433601806e-01  4.7799718946826047e-01  4.9280570829774756e-01  5.0710396775725675e-01  5.2088994211897854e-01  5.3416273400841408e-01  5.4692266115339494e-01  5.5917127824823842e-01  5.7091133669803140e-01  5.8214668800444613e-01  5.9288213922825372e-01  6.0312327131092225e-01  6.1287623293028071e-01  6.2214752376795768e-01  6.3094378132101248e-01  6.3927158453233379e-01  6.4713728556494998e-01  6.5454687822945568e-01  6.6150590825709377e-01  6.6801942719255336e-01  6.7409198849657537e-01  6.7972768172663312e-01  6.8493019852873804e-01  6.8970292267999900e-01  6.9404903559071573e-01  6.9797162851180428e-01  7.0147381318835855e-01  7.0455882381638535e-01  7.0723010482013082e-01  7.0949138104802389e-01  7.1134670931973554e-01  7.1280051265089239e-01  7.1385760073359494e-01  7.1452318217110555e-01  7.1480287539500587e-01  7.1470272601535301e-01  7.1422923849863484e-01  7.1338942951329087e-01  7.1219090905597815e-01  7.1064199365129943e-01  7.0875185363270121e-01  7.0653069394346668e-01  7.0398996526859547e-01  7.0114259986843597e-01  6.9800326447054761e-01  6.9458862117660636e-01  6.9091758666907832e-01  6.8701158008882490e-01  6.8289475076930417e-01  6.7859417850082160e-01  6.7414004111619485e-01  6.6956574692269677e-01  6.6490803285776989e-01  6.6020703320645446e-01  6.5550632822697152e-01  6.5085298697782812e-01  6.4629762392845358e-01  6.4189449461934023e-01  6.3770166210985679e-01  6.3378127414088448e-01  6.3020000248553387e-01  6.2702971340115254e-01  6.2434846514934372e-01  6.2224197064514575e-01  6.2080572846850290e-01  6.2014812574842493e-01  6.2039496969348851e-01  6.2169613656494127e-01  6.2423537230574289e-01  6.2824477727292849e-01  6.3402618324382476e-01  6.4198243697312918e-01  6.5266229210074034e-01  6.6682249560863738e-01  6.8550835694417345e-01  7.1014772298806284e-01  7.4264213546701552e-01  7.8542702287670507e-01  8.4147098480789650e-01  0.0000000000000000e+00  2.6494157172715554e-02  5.2427987763470900e-02  7.7806295491482047e-02  1.0263467396369723e-01  1.2691963770397163e-01  1.5066849317164666e-01  1.7388905520388676e-01  1.9658932617532371e-01  2.1877717500671678e-01  2.4046002400635313e-01  2.6164455688752775e-01  2.8233646638742377e-01  3.0254025754792097e-01  3.2225911745234631e-01  3.4149485715843980e-01  3.6024792725081256e-01  3.7851750462175571e-01  3.9630164458408579e-01  4.1359748914155614e-01  4.3040151922925429e-01  4.467098361