<?xml version="1.0"?>
<VTKFile type="UnstructuredGrid"  version="0.1"  >
<UnstructuredGrid>
<Piece  NumberOfPoints="20201" NumberOfCells="40000">
<Points>
<DataArray  type="Float64"  NumberOfComponents="3"  format="ascii">0 0 0  1 0 0  2 0 0  3 0 0  4 0 0  5 0 0  6 0 0  7 0 0  8 0 0  9 0 0  10 0 0  11 0 0  12 0 0  13 0 0  14 0 0  15 0 0  16 0 0  17 0 0  18 0 0  19 0 0  20 0 0  21 0 0  22 0 0  23 0 0  24 0 0  25 0 0  26 0 0  27 0 0  28 0 0  29 0 0  30 0 0  31 0 0  32 0 0  33 0 0  34 0 0  35 0 0  36 0 0  37 0 0  38 0 0  39 0 0  40 0 0  41 0 0  42 0 0  43 0 0  44 0 0  45 0 0  46 0 0  47 0 0  48 0 0  49 0 0  50 0 0  51 0 0  52 0 0  53 0 0  54 0 0  55 0 0  56 0 0  57 0 0  58 0 0  59 0 0  60 0 0  61 0 0  62 0 0  63 0 0  64 0 0  65 0 0  66 0 0  67 0 0  68 0 0  69 0 0  70 0 0  71 0 0  72 0 0  73 0 0  74 0 0  75 0 0  76 0 0  77 0 0  78 0 0  79 0 0  80 0 0  81 0 0  82 0 0  83 0 0  84 0 0  85 0 0  86 0 0  87 0 0  88 0 0  89 0 0  90 0 0  91 0 0  92 0 0  93 0 0  94 0 0  95 0 0  96 0 0  97 0 0  98 0 0  99 0 0  100 0 0  0 1 0  1 1 0  2 1 0  3 1 0  4 1 0  5 1 0  6 1 0  7 1 0  8 1 0  9 1 0  10 1 0  11 1 0  12 1 0  13 1 0  14 1 0  15 1 0  16 1 0  17 1 0  18 1 0  19 1 0  20 1 0  21 1 0  22 1 0  23 1 0  24 1 0  25 1 0  26 1 0  27 1 0  28 1 0  29 1 0  30 1 0  31 1 0  32 1 0  33 1 0  34 1 0  35 1 0  36 1 0  37 1 0  38 1 0  39 1 0  40 1 0  41 1 0  42 1 0  43 1 0  44 1 0  45 1 0  46 1 0  47 1 0  48 1 0  49 1 0  50 1 0  51 1 0  52 1 0  53 1 0  54 1 0  55 1 0  56 1 0  57 1 0  58 1 0  59 1 0  60 1 0  61 1 0  62 1 0  63 1 0  64 1 0  65 1 0  66 1 0  67 1 0  68 1 0  69 1 0  70 1 0  71 1 0  72 1 0  73 1 0  74 1 0  75 1 0  76 1 0  77 1 0  78 1 0  79 1 0  80 1 0  81 1 0  82 1 0  83 1 0  84 1 0  85 1 0  86 1 0  87 1 0  88 1 0  89 1 0  90 1 0  91 1 0  92 1 0  93 1 0  94 1 0  95 1 0  96 1 0  97 1 0  98 1 0  99 1 0  100 1 0  0 2 0  1 2 0  2 2 0  3 2 0  4 2 0  5 2 0  6 2 0  7 2 0  8 2 0  9 2 0  10 2 0  11 2 0  12 2 0  13 2 0  14 2 0  15 2 0  16 2 0  17 2 0  18 2 0  19 2 0  20 2 0  21 2 0  22 2 0  23 2 0  24 2 0  25 2 0  26 2 0  27 2 0  28 2 0  29 2 0  30 2 0  31 2 0  32 2 0  33 2 0  34 2 0  35 2 0  36 2 0  37 2 0  38 2 0  39 2 0  40 2 0  41 2 0  42 2 0  43 2 0  44 2 0  45 2 0  46 2 0  47 2 0  48 2 0  49 2 0  50 2 0  51 2 0  52 2 0  53 2 0  54 2 0  55 2 0  56 2 0  57 2 0  58 2 0  59 2 0  60 2 0  61 2 0  62 2 0  63 2 0  64 2 0  65 2 0  66 2 0  67 2 0  68 2 0  69 2 0  70 2 0  71 2 0  72 2 0  73 2 0  74 2 0  75 2 0  76 2 0  77 2 0  78 2 0  79 2 0  80 2 0  81 2 0  82 2 0  83 2 0  84 2 0  85 2 0  86 2 0  87 2 0  88 2 0  89 2 0  90 2 0  91 2 0  92 2 0  93 2 0  94 2 0  95 2 0  96 2 0  97 2 0  98 2 0  99 2 0  100 2 0  0 3 0  1 3 0  2 3 0  3 3 0  4 3 0  5 3 0  6 3 0  7 3 0  8 3 0  9 3 0  10 3 0  11 3 0  12 3 0  13 3 0  14 3 0  15 3 0  16 3 0  17 3 0  18 3 0  19 3 0  20 3 0  21 3 0  22 3 0  23 3 0  24 3 0  25 3 0  26 3 0  27 3 0  28 3 0  29 3 0  30 3 0  31 3 0  32 3 0  33 3 0  34 3 0  35 3 0  36 3 0  37 3 0  38 3 0  39 3 0  40 3 0  41 3 0  42 3 0  43 3 0  44 3 0  45 3 0  46 3 0  47 3 0  48 3 0  49 3 0  50 3 0  51 3 0  52 3 0  53 3 0  54 3 0  55 3 0  56 3 0  57 3 0  58 3 0  59 3 0  60 3 0  61 3 0  62 3 0  63 3 0  64 3 0  65 3 0  66 3 0  67 3 0  68 3 0  69 3 0  70 3 0  71 3 0  72 3 0  73 3 0  74 3 0  75 3 0  76 3 0  77 3 0  78 3 0  79 3 0  80 3 0  81 3 0  82 3 0  83 3 0  84 3 0  85 3 0  86 3 0  87 3 0  88 3 0  89 3 0  90 3 0  91 3 0  92 3 0  93 3 0  94 3 0  95 3 0  96 3 0  97 3 0  98 3 0  99 3 0  100 3 0  0 4 0  1 4 0  2 4 0  3 4 0  4 4 0  5 4 0  6 4 0  7 4 0  8 4 0  9 4 0  10 4 0  11 4 0  12 4 0  13 4 0  14 4 0  15 4 0  16 4 0  17 4 0  18 4 0  19 4 0  20 4 0  21 4 0  22 4 0  23 4 0  24 4 0  25 4 0  26 4 0  27 4 0  28 4 0  29 4 0  30 4 0  31 4 0  32 4 0  33 4 0  34 4 0  35 4 0  36 4 0  37 4 0  38 4 0  39 4 0  40 4 0  41 4 0  42 4 0  43 4 0  44 4 0  45 4 0  46 4 0  47 4 0  48 4 0  49 4 0  50 4 0  51 4 0  52 4 0  53 4 0  54 4 0  55 4 0  56 4 0  57 4 0  58 4 0  59 4 0  60 4 0  61 4 0  62 4 0  63 4 0  64 4 0  65 4 0  66 4 0  67 4 0  68 4 0  69 4 0  70 4 0  71 4 0  72 4 0  73 4 0  74 4 0  75 4 0  76 4 0  77 4 0  78 4 0  79 4 0  80 4 0  81 4 0  82 4 0  83 4 0  84 4 0  85 4 0  86 4 0  87 4 0  88 4 0  89 4 0  90 4 0  91 4 0  92 4 0  93 4 0  94 4 0  95 4 0  96 4 0  97 4 0  98 4 0  99 4 0  100 4 0  0 5 0  1 5 0  2 5 0  3 5 0  4 5 0  5 5 0  6 5 0  7 5 0  8 5 0  9 5 0  10 5 0  11 5 0  12 5 0  13 5 0  14 5 0  15 5 0  16 5 0  17 5 0  18 5 0  19 5 0  20 5 0  21 5 0  22 5 0  23 5 0  24 5 0  25 5 0  26 5 0  27 5 0  28 5 0  29 5 0  30 5 0  31 5 0  32 5 0  33 5 0  34 5 0  35 5 0  36 5 0  37 5 0  38 5 0  39 5 0  40 5 0  41 5 0  42 5 0  43 5 0  44 5 0  45 5 0  46 5 0  47 5 0  48 5 0  49 5 0  50 5 0  51 5 0  52 5 0  53 5 0  54 5 0  55 5 0  56 5 0  57 5 0  58 5 0  59 5 0  60 5 0  61 5 0  62 5 0  63 5 0  64 5 0  65 5 0  66 5 0  67 5 0  68 5 0  69 5 0  70 5 0  71 5 0  72 5 0  73 5 0  74 5 0  75 5 0  76 5 0  77 5 0  78 5 0  79 5 0  80 5 0  81 5 0  82 5 0  83 5 0  84 5 0  85 5 0  86 5 0  87 5 0  88 5 0  89 5 0  90 5 0  91 5 0  92 5 0  93 5 0  94 5 0  95 5 0  96 5 0  97 5 0  98 5 0  99 5 0  100 5 0  0 6 0  1 6 0  2 6 0  3 6 0  4 6 0  5 6 0  6 6 0  7 6 0  8 6 0  9 6 0  10 6 0  11 6 0  12 6 0  13 6 0  14 6 0  15 6 0  16 6 0  17 6 0  18 6 0  19 6 0  20 6 0  21 6 0  22 6 0  23 6 0  24 6 0  25 6 0  26 6 0  27 6 0  28 6 0  29 6 0  30 6 0  31 6 0  32 6 0  33 6 0  34 6 0  35 6 0  36 6 0  37 6 0  38 6 0  39 6 0  40 6 0  41 6 0  42 6 0  43 6 0  44 6 0  45 6 0  46 6 0  47 6 0  48 6 0  49 6 0  50 6 0  51 6 0  52 6 0  53 6 0  54 6 0  55 6 0  56 6 0  57 6 0  58 6 0  59 6 0  60 6 0  61 6 0  62 6 0  63 6 0  64 6 0  65 6 0  66 6 0  67 6 0  68 6 0  69 6 0  70 6 0  71 6 0  72 6 0  73 6 0  74 6 0  75 6 0  76 6 0  77 6 0  78 6 0  79 6 0  80 6 0  81 6 0  82 6 0  83 6 0  84 6 0  85 6 0  86 6 0  87 6 0  88 6 0  89 6 0  90 6 0  91 6 0  92 6 0  93 6 0  94 6 0  95 6 0  96 6 0  97 6 0  98 6 0  99 6 0  100 6 0  0 7 0  1 7 0  2 7 0  3 7 0  4 7 0  5 7 0  6 7 0  7 7 0  8 7 0  9 7 0  10 7 0  11 7 0  12 7 0  13 7 0  14 7 0  15 7 0  16 7 0  17 7 0  18 7 0  19 7 0  20 7 0  21 7 0  22 7 0  23 7 0  24 7 0  25 7 0  26 7 0  27 7 0  28 7 0  29 7 0  30 7 0  31 7 0  32 7 0  33 7 0  34 7 0  35 7 0  36 7 0  37 7 0  38 7 0  39 7 0  40 7 0  41 7 0  42 7 0  43 7 0  44 7 0  45 7 0  46 7 0  47 7 0  48 7 0  49 7 0  50 7 0  51 7 0  52 7 0  53 7 0  54 7 0  55 7 0  56 7 0  57 7 0  58 7 0  59 7 0  60 7 0  61 7 0  62 7 0  63 7 0  64 7 0  65 7 0  66 7 0  67 7 0  68 7 0  69 7 0  70 7 0  71 7 0  72 7 0  73 7 0  74 7 0  75 7 0  76 7 0  77 7 0  78 7 0  79 7 0  80 7 0  81 7 0  82 7 0  83 7 0  84 7 0  85 7 0  86 7 0  87 7 0  88 7 0  89 7 0  90 7 0  91 7 0  92 7 0  93 7 0  94 7 0  95 7 0  96 7 0  97 7 0  98 7 0  99 7 0  100 7 0  0 8 0  1 8 0  2 8 0  3 8 0  4 8 0  5 8 0  6 8 0  7 8 0  8 8 0  9 8 0  10 8 0  11 8 0  12 8 0  13 8 0  14 8 0  15 8 0  16 8 0  17 8 0  18 8 0  19 8 0  20 8 0  21 8 0  22 8 0  23 8 0  24 8 0  25 8 0  26 8 0  27 8 0  28 8 0  29 8 0  30 8 0  31 8 0  32 8 0  33 8 0  34 8 0  35 8 0  36 8 0  37 8 0  38 8 0  39 8 0  40 8 0  41 8 0  42 8 0  43 8 0  44 8 0  45 8 0  46 8 0  47 8 0  48 8 0  49 8 0  50 8 0  51 8 0  52 8 0  53 8 0  54 8 0  55 8 0  56 8 0  57 8 0  58 8 0  59 8 0  60 8 0  61 8 0  62 8 0  63 8 0  64 8 0  65 8 0  66 8 0  67 8 0  68 8 0  69 8 0  70 8 0  71 8 0  72 8 0  73 8 0  74 8 0  75 8 0  76 8 0  77 8 0  78 8 0  79 8 0  80 8 0  81 8 0  82 8 0  83 8 0  84 8 0  85 8 0  86 8 0  87 8 0  88 8 0  89 8 0  90 8 0  91 8 0  92 8 0  93 8 0  94 8 0  95 8 0  96 8 0  97 8 0  98 8 0  99 8 0  100 8 0  0 9 0  1 9 0  2 9 0  3 9 0  4 9 0  5 9 0  6 9 0  7 9 0  8 9 0  9 9 0  10 9 0  11 9 0  12 9 0  13 9 0  14 9 0  15 9 0  16 9 0  17 9 0  18 9 0  19 9 0  20 9 0  21 9 0  22 9 0  23 9 0  24 9 0  25 9 0  26 9 0  27 9 0  28 9 0  29 9 0  30 9 0  31 9 0  32 9 0  33 9 0  34 9 0  35 9 0  36 9 0  37 9 0  38 9 0  39 9 0  40 9 0  41 9 0  42 9 0  43 9 0  44 9 0  45 9 0  46 9 0  47 9 0  48 9 0  49 9 0  50 9 0  51 9 0  52 9 0  53 9 0  54 9 0  55 9 0  56 9 0  57 9 0  58 9 0  59 9 0  60 9 0  61 9 0  62 9 0  63 9 0  64 9 0  65 9 0  66 9 0  67 9 0  68 9 0  69 9 0  70 9 0  71 9 0  72 9 0  73 9 0  74 9 0  75 9 0  76 9 0  77 9 0  78 9 0  79 9 0  80 9 0  81 9 0  82 9 0  83 9 0  84 9 0  85 9 0  86 9 0  87 9 0  88 9 0  89 9 0  90 9 0  91 9 0  92 9 0  93 9 0  94 9 0  95 9 0  96 9 0  97 9 0  98 9 0  99 9 0  100 9 0  0 10 0  1 10 0  2 10 0  3 10 0  4 10 0  5 10 0  6 10 0  7 10 0  8 10 0  9 10 0  10 10 0  11 10 0  12 10 0  13 10 0  14 10 0  15 10 0  16 10 0  17 10 0  18 10 0  19 10 0  20 10 0  21 10 0  22 10 0  23 10 0  24 10 0  25 10 0  26 10 0  27 10 0  28 10 0  29 10 0  30 10 0  31 10 0  32 10 0  33 10 0  34 10 0  35 10 0  36 10 0  37 10 0  38 10 0  39 10 0  40 10 0  41 10 0  42 10 0  43 10 0  44 10 0  45 10 0  46 10 0  47 10 0  48 10 0  49 10 0  50 10 0  51 10 0  52 10 0  53 10 0  54 10 0  55 10 0  56 10 0  57 10 0  58 10 0  59 10 0  60 10 0  61 10 0  62 10 0  63 10 0  64 10 0  65 10 0  66 10 0  67 10 0  68 10 0  69 10 0  70 10 0  71 10 0  72 10 0  73 10 0  74 10 0  75 10 0  76 10 0  77 10 0  78 10 0  79 10 0  80 10 0  81 10 0  82 10 0  83 10 0  84 10 0  85 10 0  86 10 0  87 10 0  88 10 0  89 10 0  90 10 0  91 10 0  92 10 0  93 10 0  94 10 0  95 10 0  96 10 0  97 10 0  98 10 0  99 10 0  100 10 0  0 11 0  1 11 0  2 11 0  3 11 0  4 11 0  5 11 0  6 11 0  7 11 0  8 11 0  9 11 0  10 11 0  11 11 0  12 11 0  13 11 0  14 11 0  15 11 0  16 11 0  17 11 0  18 11 0  19 11 0  20 11 0  21 11 0  22 11 0  23 11 0  24 11 0  25 11 0  26 11 0  27 11 0  28 11 0  29 11 0  30 11 0  31 11 0  32 11 0  33 11 0  34 11 0  35 11 0  36 11 0  37 11 0  38 11 0  39 11 0  40 11 0  41 11 0  42 11 0  43 11 0  44 11 0  45 11 0  46 11 0  47 11 0  48 11 0  49 11 0  50 11 0  51 11 0  52 11 0  53 11 0  54 11 0  55 11 0  56 11 0  57 11 0  58 11 0  59 11 0  60 11 0  61 11 0  62 11 0  63 11 0  64 11 0  65 11 0  66 11 0  67 11 0  68 11 0  69 11 0  70 11 0  71 11 0  72 11 0  73 11 0  74 11 0  75 11 0  76 11 0  77 11 0  78 11 0  79 11 0  80 11 0  81 11 0  82 11 0  83 11 0  84 11 0  85 11 0  86 11 0  87 11 0  88 11 0  89 11 0  90 11 0  91 11 0  92 11 0  93 11 0  94 11 0  95 11 0  96 11 0  97 11 0  98 11 0  99 11 0
[...]
<PointData  Scalars="f_3357-2"> 
<DataArray  type="Float64"  Name="f_3357-2"  format="ascii">0.0000000000000000e+00  2.6713234475720379e-02  5.2815465582760658e-02  7.8316838254927260e-02  1.0322867683174250e-01  1.2756339447146514e-01  1.5133424557544792e-01  1.7455496914303381e-01  1.9723936770910949e-01  2.1940085160449690e-01  2.4105197978262319e-01  2.6220402998153386e-01  2.8286662775680527e-01  3.0304745778448122e-01  3.2275207365763159e-01  3.4198381525450816e-01  3.6074383620323786e-01  3.7903123814228068e-01  3.9684330322790162e-01  4.1417581148063154e-01  4.3102342507375985e-01  4.4738011779891640e-01  4.6323962517770151e-01  4.7859588956276533e-01  4.9344347543994022e-01  5.0777793298523566e-01  5.2159609233428261e-01  5.3489627633939552e-01  5.4767842517124199e-01  5.5994413149685862e-01  5.7169658989290217e-01  5.8294046855688653e-01  5.9368171522813284e-01  6.0392731243510489e-01  6.1368499956426958e-01  6.2296298055862021e-01  6.3176963609085124e-01  6.4011325772891770e-01  6.4800181901678022e-01  6.5544279480809209e-01  6.6244303600636945e-01  6.6900870249532574e-01  6.7514525285740090e-01  6.8085748577254224e-01  6.8614962497176246e-01  6.9102543741744349e-01  6.9548837306821498e-01  6.9954171420983791e-01  7.0318872290951173e-01  7.0643277662554416e-01  7.0927748424917558e-01  7.1172677768610915e-01  7.1378497725929702e-01  7.1545683243245195e-01  7.1674754231937854e-01  7.1766276293041298e-01  7.1820860993477020e-01  7.1839166670632693e-01  7.1821900743771727e-01  7.1769824414657957e-01  7.1683760453424006e-01  7.1564604497091200e-01  7.1413339951471200e-01  7.1231056210444244e-01  7.1018969520592912e-01  7.0778445444583260e-01  7.0511021533576623e-01  7.0218428535738686e-01  6.9902608262241661e-01  6.9565726094628499e-01  6.9210176031809834e-01  6.8838576137040575e-01  6.8453752241937404e-01  6.8058707758352432e-01  6.7656577403047358e-01  6.7250562527534874e-01  6.6843845504700616e-01  6.6439480138130647e-01  6.6040254199599779e-01  6.5648518840134751e-01  6.5265977594897007e-01  6.4893424786542508e-01  6.4530419065908162e-01  6.4174872266613936e-01  6.3822526108148969e-01  6.3466278605420290e-01  6.3095306854079325e-01  6.2693910777203798e-01  6.2239969399765693e-01  6.1702850269959630e-01  6.1040531248057861e-01  6.0195558360385548e-01  5.9089226377548332e-01  5.7612929135715896e-01  5.5614751136012985e-01  5.2877467912522491e-01  4.9079486478669859e-01  4.3717090815736737e-01  3.5919415238562163e-01  2.3841696116694222e-01  0.0000000000000000e+00  0.0000000000000000e+00  2.6709562320318025e-02  5.2809013609047349e-02  7.8308404111204308e-02  1.0321895245863487e-01  1.2755296588442050e-01  1.5132359212395363e-01  1.7454446342608310e-01  1.9722927769539661e-01  2.1939134546547981e-01  2.4104313347886341e-01  2.6219583739415497e-01  2.8285901294348170e-01  3.0304028878976907e-01  3.2274517724117779e-01  3.4197699189729835e-01  3.6073687478019895e-01  3.7902392968751247e-01  3.9683545325965514e-01  4.1416725040243690e-01  4.3101401623836033e-01  4.4736976292517244e-01  4.6322826695183972e-01  4.7858351142580885e-01  4.9343009874217464e-01  5.0776361185020469e-01  5.2158090669756130e-01  5.3488032370088634e-01  5.4766181162536864e-01  5.5992696259156660e-01  5.7167896182635347e-01  5.8292246015856675e-01  5.9366338109401862e-01  6.0390867749763821e-01  6.1366605527978624e-01  6.2294368279112267e-01  6.3174990466659531e-01  6.4009297753734651e-01  6.4798084244641396e-01  6.5542094523692696e-01  6.6242011201955286e-01  6.6898448248084885e-01  6.7511949963388540e-01  6.8082995093069865e-01  6.8612005265990472e-01  6.9099356736719253e-01  6.9545394273361738e-01  6.9950445997487776e-01  7.0314838039810879e-01  7.0638908021748525e-01  7.0923016595924326e-01  7.1167556559816747e-01  7.1372959372060396e-01  7.1539699220651409e-01  7.1668295087089640e-01  7.1759311497746359e-01  7.1813358835617269e-01  7.1831094184153044e-01  7.1813223676896187e-01  7.1760507231538961e-01  7.1673766362265623e-01  7.1553895497735698e-01  7.1401876897964234e-01  7.1218798889550783e-01  7.1005876755761388e-01  7.0764475246473690e-01  7.0496131333118206e-01  7.0202575554010460e-01  6.9885750093493404e-01  6.9547821604835780e-01  6.9191186706088259e-01  6.8818468046179404e-01  6.8432498842472211e-01  6.8036293793527092e-01  6.7633004236190652e-01  6.7225855318510497e-01  6.6818062739672013e-01  6.6412726151835089e-01  6.6012695502040331e-01  6.5620405297230366e-01  6.5237669844788670e-01  6.4865429742457215e-01  6.4503436026163596e-01  6.4149853119473410e-01  6.3800754536927806e-01  6.3449475318818405e-01  6.3085771113366673e-01  6.2694713605015362e-01  6.2255222165617174e-01  6.1738086350194199e-01  6.1103263048616396e-01  6.0296117292753049e-01  5.9242081657831291e-01  5.7838865234736658e-01  5.5944699585567703e-01  5.3359829777785295e-01  4.9795749254257499e-01  4.4820640375981063e-01  3.7756848968920020e-01  2.7514804994908848e-01  1.4237172930238440e-01  0.0000000000000000e+00  2.6698541072901028e-02  5.2789633761960837e-02  7.8283040187156039e-02  1.0318966682468991e-01  1.2752150700958892e-01  1.5129139199319078e-01  1.7451263735714564e-01  1.9719863066792029e-01  2.1936238638615738e-01  2.4101609753827755e-01  2.6217071595467978e-01  2.8283558976812939e-01  3.0301818096218519e-01  3.2272387890168580e-01  3.4195591887999049e-01  3.6071540829900056e-01  3.7900145732515705e-01  3.9681140564164269e-01  4.1414113210108605e-01  4.3098542968138642e-01  4.4733842440832350e-01  4.6319401428296747e-01  4.7854630323031122e-01  4.9339000597768157e-01  5.0772080254095731e-01  5.2153562524952035e-01  5.3483286637125205e-01  5.4761249980000082e-01  5.5987611549465921e-01  5.7162687017622260e-01  5.8286936211268503e-01  5.9360944160766949e-01  6.0385397196039170e-01  6.1361055799912056e-01  6.2288726057439292e-01  6.3169231542901361e-01  6.4003387355725105e-01  6.4791977762306319e-01  6.5535738549969913e-01  6.6235344790314377e-01  6.6891404282369815e-01  6.7504456537520641e-01  6.8074976806895404e-01  6.8603384358249320e-01  6.9090053995450629e-01  6.9535329686483649e-01  6.9939539129971440e-01  7.0303008146813561e-01  7.0626073927286526e-01  7.0909096382500847e-01  7.1152467124727425e-01  7.1356615910321874e-01  7.1522014692700975e-01  7.1649179722304090e-01  7.1738672373621859e-01  7.1791099558556171e-01  7.1807114682819773e-01  7.1787420104933253e-01  7.1732771965130071e-01  7.1643988071437903e-01  7.1521959269972391e-01  7.1367664400097175e-01  7.1182188570146798e-01  7.0966744115758562e-01  7.0722693240704504e-01  7.0451571009872749e-01  7.0155107094487434e-01  6.9835244478292902e-01  6.9494153211427534e-01  6.9134237231685336e-01  6.8758132258028404e-01  6.8368692785937135e-01  6.7968966242263740e-01  6.7562152355738159e-01  6.7151545745877794e-01  6.6740459572936206e-01  6.6332127720763934e-01  6.5929582293909461e-01  6.5535502100947307e-01  6.5152026134677199e-01  6.4780523670533519e-01  6.4421309306770647e-01  6.4073286843293009e-01  6.3733499965750129e-01  6.3396559675365738e-01  6.3053907442000379e-01  6.2692857913043520e-01  6.2295343757918875e-01  6.1836254975821503e-01  6.1281221525616036e-01  6.0583625463532431e-01  5.9680539467581473e-01  5.8487168302139092e-01  5.6889238785050300e-01  5.4732782155170301e-01  5.1811562785945564e-01  4.7857275518696812e-01  4.2563249176778500e-01  3.5812315378065929e-01  2.8184285115243202e-01  0.0000000000000000e+00  2.6680238707100526e-02  5.2757409752856345e-02  7.8240793698608688e-02  1.0314078967919099e-01  1.2746887895394884e-01  1.5123737565006193e-01  1.7445907804970914e-01  1.9714686683213689e-01  2.1931327271316325e-01  2.4097004117660745e-01  2.6212772497067505e-01  2.8279533203644008e-01  3.0298005087971602e-01  3.2268706889488724e-01  3.4191949254934961e-01  3.6067837210352627e-01  3.7896282786706631e-01  3.9677026983303992e-01  4.1409669779347708e-01  4.3093706475431814e-01  4.4728568287907561e-01  4.6313664871410931e-01  4.7848426352523526e-01  4.9332342547398661e-01  5.0764997303492454e-01  5.2146096313323953e-01  5.3475487240354636e-01  5.4753171517259414e-01  5.5979307683030310e-01  5.7154206594342938e-01  5.8278319268948531e-01  5.9352218488819941e-01  6.0376575597967852e-01  6.1352134156256444e-01  6.2279682233986167e-01  6.3160025133597875e-01  6.3993960197348609e-01  6.4782255112980791e-01  6.5525630789575662e-01  6.6224749479621425e-01  6.6880208409682584e-01  6.7492538785951284e-01  6.8062209690608577e-01  6.8589636100267404e-01  6.9075190050738333e-01  6.9519213849659844e-01  6.9922034204450600e-01  7.0283976188502040e-01  7.0605376108164986e-01  7.0886592544927018e-01  7.1128015114214049e-01  7.1330070781846366e-01  7.1493227883231969e-01  7.1617998271210126e-01  7.1704938254819861e-01  7.1754649165930762e-01  7.1767778486193001e-01  7.1745022470780606e-01  7.1687131117673542e-01  7.1594916158742328e-01  7.1469262498863928e-01  7.1311143215593564e-01  7.1121637881617639e-01  7.0901953614031987e-01  7.0653447907818756e-01  7.0377651996386803e-01  7.0076293228730002e-01  6.9751314777914830e-01  6.9404890891103899e-01  6.9039435845092023e-01  6.8657604782589621e-01  6.8262284661319306e-01  6.7856573616064142e-01  6.7443747084687389e-01  6.7027209066001670e-01  6.6610426812302037e-01  6.6196847021973437e-01  6.5789791101016049e-01  6.5392326235543707e-01  6.5007107762073102e-01  6.4636186515739391e-01  6.4280772381469620e-01  6.3940942077643226e-01  6.3615275098495438e-01  6.3300396490216504e-01  6.2990398497144795e-01  6.2676104879956762e-01  6.2344131793912561e-01  6.1975688021954167e-01  6.1545047297955802e-01  6.1017623025417245e-01  6.0347598927611934e-01  5.9475166649623290e-01  5.8323724933014243e-01  5.6798270326520228e-01  5.4788690136719997e-01  5.2188577242307543e-01  4.8956886860585141e-01  4.5249771513228892e-01  4.1557185356313309e-01  0.0000000000000000e+00  2.6654890996523989e-02  5.2712716917529906e-02  7.8182096027628198e-02  1.0307273938256739e-01  1.2739543154623989e-01  1.5116178209933226e-01  1.7438388462575505e-01  1.9707392932403275e-01  2.1924378772445569e-01  2.4090459503230099e-01  2.6206635926356442e-01  2.8273762344876080e-01  3.0292520183582278e-01  3.2263400496911077e-01  3.4186696231395103e-01  3.6062504512895188e-01  3.7890738677822194e-01  3.9671149263612304e-01  4.1403352712765068e-01  4.3086866132950136e-01  4.4721146116485344e-01  4.6305629393124925e-01  4.7839773008771763e-01  4.9323091811783953e-01  5.0755191282459455e-01  5.2135794126334545e-01  5.3464759517503646e-01  5.4742094372962036e-01  5.5967956523789508e-01  5.7142650100959835e-01  5.8266613861859029e-01  5.9340403540898767e-01  6.0364669602757148e-01  6.1340131992411284e-01  6.2267553591856373e-01  6.3147714092498186e-01  6.3981385868839302e-01  6.4769313202959244e-01  6.5512195885143465e-01  6.6210677838068688e-01  6.6865341016673752e-01  6.7476704456607439e-01  6.8045228008276559e-01  6.8571320020571380e-01  6.9055348040066677e-01  6.9497651474437228e-01  6.9898555136997764e-01  7.0258382643279993e-01  7.0577468764943785e-01  7.0856170049550349e-01  7.1094873270613768e-01  7.1294001559291709e-01  7.1454018360248872e-01  7.1575429623416698e-01  7.1658784870507453e-01  7.1704677943589035e-01  7.1713748335810978e-01  7.1686684009810564e-01  7.1624226527541912e-01  7.1527179152865472e-01  7.1396418351897439e-01  7.1232908819562735e-01  7.1037721830423739e-01  7.0812056374771526e-01  7.0557262215347316e-01  7.0274863706707602e-01  6.9966582987405657e-01  6.9634361001677303e-01  6.9280374724944926e-01  6.8907048947257765e-01  6.8517061012749703e-01  6.8113337010467767e-01  6.7699038030659520e-01  6.7277535218249473e-01  6.6852372461739873e-01  6.6427215611267276e-01  6.6005787049305609e-01  6.5591784181009072e-01  6.5188779929935448e-01  6.4800102560324335e-01  6.4428691035459040e-01  6.4076920657470138e-01  6.3746391960659576e-01  6.3437673790504578e-01  6.3149989298606890e-01  6.2880831545789084e-01  6.2625494239252877e-01  6.2376504264576160e-01  6.2122949147668460e-01  6.1849710853863971e-01  6.1536660923700659e-01  6.1157969386924527e-01  6.0681891974234115e-01  6.0071855260428964e-01  5.9290616085587089e-01  5.8311163867714566e-01  5.7141030150818140e-01  5.5867186196076213e-01  5.4715025779995674e-01  5.4083421149790412e-01  0.0000000000000000e+00  2.6622915607369204e-02  5.2656256313461387e-02  7.8107816788679757e-02  1.0298645705464853e-01  1.2730209742155976e-01  1.5106547241117066e-01  1.7428780030993657e-01  1.9698041358789423e-01  2.1915436459080173e-01  2.4082002959219612e-01  2.6198673852984472e-01  2.8266245499219844e-01  3.0285352604104243e-01  3.2256451591934931e-01  3.4179813195187664e-01  3.6055524531807520e-01  3.7883500409781029e-01  3.9663503113027332e-01  4.1395169480015626e-01  4.3078043696271157e-01  4.4711613906314890e-01  4.6295350541981961e-01  4.7828744194379019e-01  4.9311340943704340e-01  5.0742773298723809e-01  5.2122785255924509e-01  5.3451250422700503e-01  5.4728182613617127e-01  5.5953738787768581e-01  5.7128214625968898e-01  5.8252033436751616e-01  5.9325729420869378e-01  6.0349926603342730e-01  6.1325314943709230e-01  6.2252625240883730e-01  6.3132604444855611e-01  6.3965992869185451e-01  6.4753504575483067e-01  6.5495811896458478e-01  6.6193534708878610e-01  6.6847234695328428e-01  6.7457414475328437e-01  6.8024521168302954e-01  6.8548953692191261e-01  6.9031072913728331e-01  6.9471213656056319e-01  6.9869697540151077e-01  7.0226845688827666e-01  7.0542990450291077e-01  7.0818485491255234e-01  7.1053713852298861e-01  7.1249093829929810e-01  7.1405082825473576e-01  7.1522179555956844e-01  7.1600925238015900e-01  7.1641904516660138e-01  7.1645747000076809e-01  7.1613130268727443e-01  7.1544785152335777e-01  7.1441503918152949e-01  7.1304151794181581e-01  7.1133681975356522e-01  7.0931153954618764e-01  7.0697754709491223e-01  7.0434821974786344e-01  7.0143868564281664e-01  6.9826606497981936e-01  6.9484969563146126e-01  6.9121132880264369e-01  6.8737528054360486e-01  6.8336852572676243e-01  6.7922072252353827e-01  6.7496415717120450e-01  6.7063360074345013e-01  6.6626607170643359e-01  6.6190049993762290e-01  6.5757728902079349e-01  6.5333777367408641e-01  6.4922356806096082e-01  6.4527579826779347e-01  6.4153420831792229e-01  6.3803612450220304e-01  6.3481525912681791e-01  6.3190033410469837e-01  6.2931351079125553e-01  6.2706863229049870e-01  6.2516933088644799e-01  6.2360714847892440e-01  6.2236000257170965e-01  6.2139167940408202e-01  6.2065368459485026e-01  6.2009197077681433e-01  6.1966320180550349e-01  6.1936892092204965e-01  6.1932184725810846e-01  6.1986561763549985e-01  6.2177004274458370e-01  6.2649687990781544e-01  6.3645516551949910e-01  6.5507789492449620e-01  0.0000000000000000e+00  2.6584894972168694e-02  5.2589026369496562e-02  7.8019225666486572e-02  1.0288336013117401e-01  1.2719033895157378e-01  1.5094987160599019e-01  1.7417215077180201e-01  1.9686750360177155e-01  2.1904602179467986e-01  2.4071719093460781e-01  2.6188954429978067e-01  2.8257036373777894e-01  3.0276544562883040e-01  3.2247894497937829e-01  3.4171330546407458e-01  3.6046927800702577e-01  3.7874602551015463e-01  3.9654130671801235e-01  4.1385172802033487e-01  4.3067304835126596e-01  4.4700051945520075e-01  4.6282924192752678e-01  4.7815451686047133e-01  4.9297217376292163e-01  5.0727885761511404e-01  5.2107226120480798e-01  5.3435129288784478e-01  5.4711617422302050e-01  5.5936846622154834e-01  5.7111102700532579e-01  5.8234790735039288e-01  5.9308419379624133e-01  6.0332581160452847e-01  6.1307930170021241e-01  6.2235158666899126e-01  6.3114974080464414e-01  6.3948077807491910e-01  6.4735146979848279e-01  6.5476820100273136e-01  6.6173687114018298e-01  6.6826284138091452e-01  6.7435092735808611e-01  6.8000543327083451e-01  6.8523022082775609e-01  6.9002880475834882e-01  6.9440446559309377e-01  6.9836037015159280e-01  7.0189969068211222e-01  7.0502571480917031e-01  7.0774194026301651e-01  7.1005215064329785e-01  7.1196047101731141e-01  7.1347140473453474e-01  7.1458985522946361e-01  7.1532113861496760e-01  7.1567099438890569e-01  7.1564560243069242e-01  7.1525161455300623e-01  7.1449620820797166e-01  7.1338716858337692e-01  7.1193300331641263e-01  7.1014309153264010e-01  7.0802786613334168e-01  7.0559902543350617e-01  7.0286976754308350e-01  6.9985503849344732e-01  6.9657178333376091e-01  6.9303918841151702e-01  6.8927890275256565e-01  6.8531522685482793e-01  6.8117525839594117e-01  6.7688898624472682e-01  6.7248932649696913e-01  6.6801209693907782e-01  6.6349592942958424e-01  6.5898212293598390e-01  6.5451444293313255e-01  6.5013887547914662e-01  6.4590334676769390e-01  6.4185742140768831e-01  6.3805199543762603e-01  6.3453900452955958e-01  6.3137117633543560e-01  6.2860187154764380e-01  6.2628508598007415e-01  6.2447573472411178e-01  6.2323042351027313e-01  6.2260905433406077e-01  6.2267784921197322e-01  6.2351476774791015e-01  6.2521893268322926e-01  6.2792669000374290e-01  6.3183845525532623e-01  6.3726255324807068e-01  6.4468430707626334e-01  6.5486855772118213e-01  6.6899663912856766e-01  6.8881842113105674e-01  7.1676846034164343e-01  7.5597536254553721e-01  0.0000000000000000e+00  2.6541559570646411e-02  5.2512292540962943e-02  7.7917951759151047e-02  1.0276529436627052e-01  1.2706209552382952e-01  1.5081691343542541e-01  1.7403878824646654e-01  1.9673691679367503e-01  2.1892030991514982e-01  2.4059745008365996e-01  2.6177597222003018e-01  2.8246238811965491e-01  3.0266187077707901e-01  3.2237811048616427e-01  3.4161324991617226e-01  3.6036790058664492e-01  3.7864123853800769e-01  3.9643117267974032e-01  4.1373457540191627e-01  4.3054756169329977e-01  4.4686580041083668e-01  4.6268483971684815e-01  4.7800042823953431e-01  4.9280881431285600e-01  5.0710700764934791e-01  5.2089299077322038e-01  5.3416587116862968e-01  5.4692596903617519e-01  5.5917483950679325e-01  5.7091523192494043e-01  5.8215099223747591e-01  5.9288691749213951e-01  6.0312857383384988e-01  6.1288209104965896e-01  6.2215394752523034e-01  6.3095075935282274e-01  6.3927908626668017e-01  6.4714526516727811e-01  6.5455527941267466e-01  6.6151466904536083e-01  6.6802848395220049e-01  6.7410127888414895e-01  6.7973714652227457e-01  6.8493978254219989e-01  6.8971257501023842e-01  6.9405870950433279e-01  6.9798128112650315e-01  7.0148340505851903e-01  7.0456831845321355e-01  7.0723946815077188e-01  7.0950058083031198e-01  7.1135571457388092e-01  7.1280929321372555e-01  7.1386612705182051e-01  7.1453142543228654e-01  7.1481080807323083e-01  7.1471032287543990e-01  7.1423647803287538e-01  7.1339629569104523e-01  7.1219739318506947e-01  7.1064809608527180e-01  7.0875758501382968e-01  7.0653607570845889e-01  7.0399502930227131e-01  7.0114738738982174e-01  6.9800782436367015e-01  6.9459300802778656e-01  6.9092185876648149e-01  6.8701579752038044e-01  6.8289897351904139e-01  6.7859846426918835e-01  6.7414444262616335e-01  6.6957030864678369e-01  6.6491278731382142e-01  6.6021199725864110e-01  6.5551150010855141e-01  6.5085834472928750e-01  6.4630312555292102e-01  6.4190007983702424e-01  6.3770725538913942e-01  6.3378678860239934e-01  6.3020534431949571e-01  6.2703478676786517e-01  6.2435317790475564e-01  6.2224624109662729e-01  6.2080949271145580e-01  6.2015134451626486e-01  6.2039763335673304e-01  6.2169826693506791e-01  6.2423702043392837e-01  6.2824601721872708e-01  6.3402710200076873e-01  6.4198312267709168e-01  6.5266283285275761e-01  6.6682301046983461e-01  6.8550903422206477e-01  7.1014871790556833e-01  7.4264324702143769e-01  7.8542766266273589e-01  8.4147098191252412e-01  0.0000000000000000e+00  2.6493770731733823e-02  5.2427556568215260e-02  7.7805943419438278e-02  1.0263448795223071e-01  1.2691973505486434e-01  1.5066899182274834e-01  1.7389004486423118e-01  1.9659086065971082e-01  2.1877927239490427e-01  2.4046266829449733e-01  2.6164770180640268e-01  2.8234004177203376e-01  3.0254417700619413e-01  3.2226328586725778e-01  3.4149917727778800e-01  3.6025230536398511e-01  3.7852185566671737e-01  3.9630589692271073e-01  4.1360158885986487e-01  4.3040543344142124e-01  4.467135547