<?xml version="1.0"?>
<VTKFile type="UnstructuredGrid"  version="0.1"  >
<UnstructuredGrid>
<Piece  NumberOfPoints="20201" NumberOfCells="40000">
<Points>
<DataArray  type="Float64"  NumberOfComponents="3"  format="ascii">0 0 0  1 0 0  2 0 0  3 0 0  4 0 0  5 0 0  6 0 0  7 0 0  8 0 0  9 0 0  10 0 0  11 0 0  12 0 0  13 0 0  14 0 0  15 0 0  16 0 0  17 0 0  18 0 0  19 0 0  20 0 0  21 0 0  22 0 0  23 0 0  24 0 0  25 0 0  26 0 0  27 0 0  28 0 0  29 0 0  30 0 0  31 0 0  32 0 0  33 0 0  34 0 0  35 0 0  36 0 0  37 0 0  38 0 0  39 0 0  40 0 0  41 0 0  42 0 0  43 0 0  44 0 0  45 0 0  46 0 0  47 0 0  48 0 0  49 0 0  50 0 0  51 0 0  52 0 0  53 0 0  54 0 0  55 0 0  56 0 0  57 0 0  58 0 0  59 0 0  60 0 0  61 0 0  62 0 0  63 0 0  64 0 0  65 0 0  66 0 0  67 0 0  68 0 0  69 0 0  70 0 0  71 0 0  72 0 0  73 0 0  74 0 0  75 0 0  76 0 0  77 0 0  78 0 0  79 0 0  80 0 0  81 0 0  82 0 0  83 0 0  84 0 0  85 0 0  86 0 0  87 0 0  88 0 0  89 0 0  90 0 0  91 0 0  92 0 0  93 0 0  94 0 0  95 0 0  96 0 0  97 0 0  98 0 0  99 0 0  100 0 0  0 1 0  1 1 0  2 1 0  3 1 0  4 1 0  5 1 0  6 1 0  7 1 0  8 1 0  9 1 0  10 1 0  11 1 0  12 1 0  13 1 0  14 1 0  15 1 0  16 1 0  17 1 0  18 1 0  19 1 0  20 1 0  21 1 0  22 1 0  23 1 0  24 1 0  25 1 0  26 1 0  27 1 0  28 1 0  29 1 0  30 1 0  31 1 0  32 1 0  33 1 0  34 1 0  35 1 0  36 1 0  37 1 0  38 1 0  39 1 0  40 1 0  41 1 0  42 1 0  43 1 0  44 1 0  45 1 0  46 1 0  47 1 0  48 1 0  49 1 0  50 1 0  51 1 0  52 1 0  53 1 0  54 1 0  55 1 0  56 1 0  57 1 0  58 1 0  59 1 0  60 1 0  61 1 0  62 1 0  63 1 0  64 1 0  65 1 0  66 1 0  67 1 0  68 1 0  69 1 0  70 1 0  71 1 0  72 1 0  73 1 0  74 1 0  75 1 0  76 1 0  77 1 0  78 1 0  79 1 0  80 1 0  81 1 0  82 1 0  83 1 0  84 1 0  85 1 0  86 1 0  87 1 0  88 1 0  89 1 0  90 1 0  91 1 0  92 1 0  93 1 0  94 1 0  95 1 0  96 1 0  97 1 0  98 1 0  99 1 0  100 1 0  0 2 0  1 2 0  2 2 0  3 2 0  4 2 0  5 2 0  6 2 0  7 2 0  8 2 0  9 2 0  10 2 0  11 2 0  12 2 0  13 2 0  14 2 0  15 2 0  16 2 0  17 2 0  18 2 0  19 2 0  20 2 0  21 2 0  22 2 0  23 2 0  24 2 0  25 2 0  26 2 0  27 2 0  28 2 0  29 2 0  30 2 0  31 2 0  32 2 0  33 2 0  34 2 0  35 2 0  36 2 0  37 2 0  38 2 0  39 2 0  40 2 0  41 2 0  42 2 0  43 2 0  44 2 0  45 2 0  46 2 0  47 2 0  48 2 0  49 2 0  50 2 0  51 2 0  52 2 0  53 2 0  54 2 0  55 2 0  56 2 0  57 2 0  58 2 0  59 2 0  60 2 0  61 2 0  62 2 0  63 2 0  64 2 0  65 2 0  66 2 0  67 2 0  68 2 0  69 2 0  70 2 0  71 2 0  72 2 0  73 2 0  74 2 0  75 2 0  76 2 0  77 2 0  78 2 0  79 2 0  80 2 0  81 2 0  82 2 0  83 2 0  84 2 0  85 2 0  86 2 0  87 2 0  88 2 0  89 2 0  90 2 0  91 2 0  92 2 0  93 2 0  94 2 0  95 2 0  96 2 0  97 2 0  98 2 0  99 2 0  100 2 0  0 3 0  1 3 0  2 3 0  3 3 0  4 3 0  5 3 0  6 3 0  7 3 0  8 3 0  9 3 0  10 3 0  11 3 0  12 3 0  13 3 0  14 3 0  15 3 0  16 3 0  17 3 0  18 3 0  19 3 0  20 3 0  21 3 0  22 3 0  23 3 0  24 3 0  25 3 0  26 3 0  27 3 0  28 3 0  29 3 0  30 3 0  31 3 0  32 3 0  33 3 0  34 3 0  35 3 0  36 3 0  37 3 0  38 3 0  39 3 0  40 3 0  41 3 0  42 3 0  43 3 0  44 3 0  45 3 0  46 3 0  47 3 0  48 3 0  49 3 0  50 3 0  51 3 0  52 3 0  53 3 0  54 3 0  55 3 0  56 3 0  57 3 0  58 3 0  59 3 0  60 3 0  61 3 0  62 3 0  63 3 0  64 3 0  65 3 0  66 3 0  67 3 0  68 3 0  69 3 0  70 3 0  71 3 0  72 3 0  73 3 0  74 3 0  75 3 0  76 3 0  77 3 0  78 3 0  79 3 0  80 3 0  81 3 0  82 3 0  83 3 0  84 3 0  85 3 0  86 3 0  87 3 0  88 3 0  89 3 0  90 3 0  91 3 0  92 3 0  93 3 0  94 3 0  95 3 0  96 3 0  97 3 0  98 3 0  99 3 0  100 3 0  0 4 0  1 4 0  2 4 0  3 4 0  4 4 0  5 4 0  6 4 0  7 4 0  8 4 0  9 4 0  10 4 0  11 4 0  12 4 0  13 4 0  14 4 0  15 4 0  16 4 0  17 4 0  18 4 0  19 4 0  20 4 0  21 4 0  22 4 0  23 4 0  24 4 0  25 4 0  26 4 0  27 4 0  28 4 0  29 4 0  30 4 0  31 4 0  32 4 0  33 4 0  34 4 0  35 4 0  36 4 0  37 4 0  38 4 0  39 4 0  40 4 0  41 4 0  42 4 0  43 4 0  44 4 0  45 4 0  46 4 0  47 4 0  48 4 0  49 4 0  50 4 0  51 4 0  52 4 0  53 4 0  54 4 0  55 4 0  56 4 0  57 4 0  58 4 0  59 4 0  60 4 0  61 4 0  62 4 0  63 4 0  64 4 0  65 4 0  66 4 0  67 4 0  68 4 0  69 4 0  70 4 0  71 4 0  72 4 0  73 4 0  74 4 0  75 4 0  76 4 0  77 4 0  78 4 0  79 4 0  80 4 0  81 4 0  82 4 0  83 4 0  84 4 0  85 4 0  86 4 0  87 4 0  88 4 0  89 4 0  90 4 0  91 4 0  92 4 0  93 4 0  94 4 0  95 4 0  96 4 0  97 4 0  98 4 0  99 4 0  100 4 0  0 5 0  1 5 0  2 5 0  3 5 0  4 5 0  5 5 0  6 5 0  7 5 0  8 5 0  9 5 0  10 5 0  11 5 0  12 5 0  13 5 0  14 5 0  15 5 0  16 5 0  17 5 0  18 5 0  19 5 0  20 5 0  21 5 0  22 5 0  23 5 0  24 5 0  25 5 0  26 5 0  27 5 0  28 5 0  29 5 0  30 5 0  31 5 0  32 5 0  33 5 0  34 5 0  35 5 0  36 5 0  37 5 0  38 5 0  39 5 0  40 5 0  41 5 0  42 5 0  43 5 0  44 5 0  45 5 0  46 5 0  47 5 0  48 5 0  49 5 0  50 5 0  51 5 0  52 5 0  53 5 0  54 5 0  55 5 0  56 5 0  57 5 0  58 5 0  59 5 0  60 5 0  61 5 0  62 5 0  63 5 0  64 5 0  65 5 0  66 5 0  67 5 0  68 5 0  69 5 0  70 5 0  71 5 0  72 5 0  73 5 0  74 5 0  75 5 0  76 5 0  77 5 0  78 5 0  79 5 0  80 5 0  81 5 0  82 5 0  83 5 0  84 5 0  85 5 0  86 5 0  87 5 0  88 5 0  89 5 0  90 5 0  91 5 0  92 5 0  93 5 0  94 5 0  95 5 0  96 5 0  97 5 0  98 5 0  99 5 0  100 5 0  0 6 0  1 6 0  2 6 0  3 6 0  4 6 0  5 6 0  6 6 0  7 6 0  8 6 0  9 6 0  10 6 0  11 6 0  12 6 0  13 6 0  14 6 0  15 6 0  16 6 0  17 6 0  18 6 0  19 6 0  20 6 0  21 6 0  22 6 0  23 6 0  24 6 0  25 6 0  26 6 0  27 6 0  28 6 0  29 6 0  30 6 0  31 6 0  32 6 0  33 6 0  34 6 0  35 6 0  36 6 0  37 6 0  38 6 0  39 6 0  40 6 0  41 6 0  42 6 0  43 6 0  44 6 0  45 6 0  46 6 0  47 6 0  48 6 0  49 6 0  50 6 0  51 6 0  52 6 0  53 6 0  54 6 0  55 6 0  56 6 0  57 6 0  58 6 0  59 6 0  60 6 0  61 6 0  62 6 0  63 6 0  64 6 0  65 6 0  66 6 0  67 6 0  68 6 0  69 6 0  70 6 0  71 6 0  72 6 0  73 6 0  74 6 0  75 6 0  76 6 0  77 6 0  78 6 0  79 6 0  80 6 0  81 6 0  82 6 0  83 6 0  84 6 0  85 6 0  86 6 0  87 6 0  88 6 0  89 6 0  90 6 0  91 6 0  92 6 0  93 6 0  94 6 0  95 6 0  96 6 0  97 6 0  98 6 0  99 6 0  100 6 0  0 7 0  1 7 0  2 7 0  3 7 0  4 7 0  5 7 0  6 7 0  7 7 0  8 7 0  9 7 0  10 7 0  11 7 0  12 7 0  13 7 0  14 7 0  15 7 0  16 7 0  17 7 0  18 7 0  19 7 0  20 7 0  21 7 0  22 7 0  23 7 0  24 7 0  25 7 0  26 7 0  27 7 0  28 7 0  29 7 0  30 7 0  31 7 0  32 7 0  33 7 0  34 7 0  35 7 0  36 7 0  37 7 0  38 7 0  39 7 0  40 7 0  41 7 0  42 7 0  43 7 0  44 7 0  45 7 0  46 7 0  47 7 0  48 7 0  49 7 0  50 7 0  51 7 0  52 7 0  53 7 0  54 7 0  55 7 0  56 7 0  57 7 0  58 7 0  59 7 0  60 7 0  61 7 0  62 7 0  63 7 0  64 7 0  65 7 0  66 7 0  67 7 0  68 7 0  69 7 0  70 7 0  71 7 0  72 7 0  73 7 0  74 7 0  75 7 0  76 7 0  77 7 0  78 7 0  79 7 0  80 7 0  81 7 0  82 7 0  83 7 0  84 7 0  85 7 0  86 7 0  87 7 0  88 7 0  89 7 0  90 7 0  91 7 0  92 7 0  93 7 0  94 7 0  95 7 0  96 7 0  97 7 0  98 7 0  99 7 0  100 7 0  0 8 0  1 8 0  2 8 0  3 8 0  4 8 0  5 8 0  6 8 0  7 8 0  8 8 0  9 8 0  10 8 0  11 8 0  12 8 0  13 8 0  14 8 0  15 8 0  16 8 0  17 8 0  18 8 0  19 8 0  20 8 0  21 8 0  22 8 0  23 8 0  24 8 0  25 8 0  26 8 0  27 8 0  28 8 0  29 8 0  30 8 0  31 8 0  32 8 0  33 8 0  34 8 0  35 8 0  36 8 0  37 8 0  38 8 0  39 8 0  40 8 0  41 8 0  42 8 0  43 8 0  44 8 0  45 8 0  46 8 0  47 8 0  48 8 0  49 8 0  50 8 0  51 8 0  52 8 0  53 8 0  54 8 0  55 8 0  56 8 0  57 8 0  58 8 0  59 8 0  60 8 0  61 8 0  62 8 0  63 8 0  64 8 0  65 8 0  66 8 0  67 8 0  68 8 0  69 8 0  70 8 0  71 8 0  72 8 0  73 8 0  74 8 0  75 8 0  76 8 0  77 8 0  78 8 0  79 8 0  80 8 0  81 8 0  82 8 0  83 8 0  84 8 0  85 8 0  86 8 0  87 8 0  88 8 0  89 8 0  90 8 0  91 8 0  92 8 0  93 8 0  94 8 0  95 8 0  96 8 0  97 8 0  98 8 0  99 8 0  100 8 0  0 9 0  1 9 0  2 9 0  3 9 0  4 9 0  5 9 0  6 9 0  7 9 0  8 9 0  9 9 0  10 9 0  11 9 0  12 9 0  13 9 0  14 9 0  15 9 0  16 9 0  17 9 0  18 9 0  19 9 0  20 9 0  21 9 0  22 9 0  23 9 0  24 9 0  25 9 0  26 9 0  27 9 0  28 9 0  29 9 0  30 9 0  31 9 0  32 9 0  33 9 0  34 9 0  35 9 0  36 9 0  37 9 0  38 9 0  39 9 0  40 9 0  41 9 0  42 9 0  43 9 0  44 9 0  45 9 0  46 9 0  47 9 0  48 9 0  49 9 0  50 9 0  51 9 0  52 9 0  53 9 0  54 9 0  55 9 0  56 9 0  57 9 0  58 9 0  59 9 0  60 9 0  61 9 0  62 9 0  63 9 0  64 9 0  65 9 0  66 9 0  67 9 0  68 9 0  69 9 0  70 9 0  71 9 0  72 9 0  73 9 0  74 9 0  75 9 0  76 9 0  77 9 0  78 9 0  79 9 0  80 9 0  81 9 0  82 9 0  83 9 0  84 9 0  85 9 0  86 9 0  87 9 0  88 9 0  89 9 0  90 9 0  91 9 0  92 9 0  93 9 0  94 9 0  95 9 0  96 9 0  97 9 0  98 9 0  99 9 0  100 9 0  0 10 0  1 10 0  2 10 0  3 10 0  4 10 0  5 10 0  6 10 0  7 10 0  8 10 0  9 10 0  10 10 0  11 10 0  12 10 0  13 10 0  14 10 0  15 10 0  16 10 0  17 10 0  18 10 0  19 10 0  20 10 0  21 10 0  22 10 0  23 10 0  24 10 0  25 10 0  26 10 0  27 10 0  28 10 0  29 10 0  30 10 0  31 10 0  32 10 0  33 10 0  34 10 0  35 10 0  36 10 0  37 10 0  38 10 0  39 10 0  40 10 0  41 10 0  42 10 0  43 10 0  44 10 0  45 10 0  46 10 0  47 10 0  48 10 0  49 10 0  50 10 0  51 10 0  52 10 0  53 10 0  54 10 0  55 10 0  56 10 0  57 10 0  58 10 0  59 10 0  60 10 0  61 10 0  62 10 0  63 10 0  64 10 0  65 10 0  66 10 0  67 10 0  68 10 0  69 10 0  70 10 0  71 10 0  72 10 0  73 10 0  74 10 0  75 10 0  76 10 0  77 10 0  78 10 0  79 10 0  80 10 0  81 10 0  82 10 0  83 10 0  84 10 0  85 10 0  86 10 0  87 10 0  88 10 0  89 10 0  90 10 0  91 10 0  92 10 0  93 10 0  94 10 0  95 10 0  96 10 0  97 10 0  98 10 0  99 10 0  100 10 0  0 11 0  1 11 0  2 11 0  3 11 0  4 11 0  5 11 0  6 11 0  7 11 0  8 11 0  9 11 0  10 11 0  11 11 0  12 11 0  13 11 0  14 11 0  15 11 0  16 11 0  17 11 0  18 11 0  19 11 0  20 11 0  21 11 0  22 11 0  23 11 0  24 11 0  25 11 0  26 11 0  27 11 0  28 11 0  29 11 0  30 11 0  31 11 0  32 11 0  33 11 0  34 11 0  35 11 0  36 11 0  37 11 0  38 11 0  39 11 0  40 11 0  41 11 0  42 11 0  43 11 0  44 11 0  45 11 0  46 11 0  47 11 0  48 11 0  49 11 0  50 11 0  51 11 0  52 11 0  53 11 0  54 11 0  55 11 0  56 11 0  57 11 0  58 11 0  59 11 0  60 11 0  61 11 0  62 11 0  63 11 0  64 11 0  65 11 0  66 11 0  67 11 0  68 11 0  69 11 0  70 11 0  71 11 0  72 11 0  73 11 0  74 11 0  75 11 0  76 11 0  77 11 0  78 11 0  79 11 0  80 11 0  81 11 0  82 11 0  83 11 0  84 11 0  85 11 0  86 11 0  87 11 0  88 11 0  89 11 0  90 11 0  91 11 0  92 11 0  93 11 0  94 11 0  95 11 0  96 11 0  97 11 0  98 11 0  99 11 0
[...]
<PointData  Scalars="f_3357-2"> 
<DataArray  type="Float64"  Name="f_3357-2"  format="ascii">0.0000000000000000e+00  2.6715460944115321e-02  5.2819347703341762e-02  7.8321820141988810e-02  1.0323402241007706e-01  1.2756801833939410e-01  1.5133675278706635e-01  1.7455388379416256e-01  1.9723343186962083e-01  2.1938927243946801e-01  2.4103454770481586e-01  2.6218109367215447e-01  2.8283896620530141e-01  3.0301611416922758e-01  3.2271820671570517e-01  3.4194859427482960e-01  3.6070837579565951e-01  3.7899655251121356e-01  3.9681026030569022e-01  4.1414507993424110e-01  4.3099542268656932e-01  4.4735497897051907e-01  4.6321720321394971e-01  4.7857579743941170e-01  4.9342515381952612e-01  5.0776072472067668e-01  5.2157930305285605e-01  5.3487920973020753e-01  5.4766039405034528e-01  5.5992445582265149e-01  5.7167459695985579e-01  5.8291550782569090e-01  5.9365319238333980e-01  6.0389473766585300e-01  6.1364803762843156e-01  6.2292148793156965e-01  6.3172367422631270e-01  6.4006307928355077e-01  6.4794783215800056e-01  6.5538551597502237e-01  6.6238304219200528e-01  6.6894659106758880e-01  6.7508161233447639e-01  6.8079287698802160e-01  6.8608456990933042e-01  6.9096041273541942e-01  6.9542380629991651e-01  6.9947798192492949e-01  7.0312615105017451e-01  7.0637164347699977e-01  7.0921802613633855e-01  7.1166919679726948e-01  7.1372945031268897e-01  7.1540351847788586e-01  7.1669658793316970e-01  7.1761430340409238e-01  7.1816276567903292e-01  7.1834853490936534e-01  7.1817864997495096e-01  7.1766067370276776e-01  7.1680277160436079e-01  7.1561382854624023e-01  7.1410360360834102e-01  7.1228291878038619e-01  7.1016387274048665e-01  7.0776006740135089e-01  7.0508683259890603e-01  7.0216143321293667e-01  6.9900324268606762e-01  6.9563386659553961e-01  6.9207719884538488e-01  6.8835939064680562e-01  6.8450870874988223e-01  6.8055525518948567e-01  6.7653051769828265e-01  6.7246671959168680e-01  6.6839594064613506e-01  6.6434898376563856e-01  6.6035396079990738e-01  6.5643455899814473e-01  6.5260792408291668e-01  6.4888205731527826e-01  6.4525257437848016e-01  6.4169861378405058e-01  6.3817760767922704e-01  6.3461852854349987e-01  6.3091308420920644e-01  6.2690412295360642e-01  6.2237018435410751e-01  6.1700461530182116e-01  6.1038683833137741e-01  6.0194198403233024e-01  5.9088272610358517e-01  5.7612279177303438e-01  5.5614292002671717e-01  5.2877102417020982e-01  4.9079184625616096e-01  4.3716939289005741e-01  3.5919563850184633e-01  2.3842084224089338e-01  0.0000000000000000e+00  0.0000000000000000e+00  2.6711832112487829e-02  5.2812911754633887e-02  7.8313338320132736e-02  1.0322417785523197e-01  1.2755740526804246e-01  1.5132586932842038e-01  1.7454312658404700e-01  1.9722309241925889e-01  2.1937953686056297e-01  2.4102550152199193e-01  2.6217273219731441e-01  2.8283120928417810e-01  3.0300882314315103e-01  3.2271120156215105e-01  3.4194166970349665e-01  3.6070131592963295e-01  3.7898914425445768e-01  3.9680230551516527e-01  4.1413640622434666e-01  4.3098589232524714e-01  4.4734449511093149e-01  4.6320571279955991e-01  4.7856329052557711e-01  4.9341165960315997e-01  5.0774630502118479e-01  5.2156404418112823e-01  5.3486321361449518e-01  5.4764376927179947e-01  5.5990730898097607e-01  5.7165702462207024e-01  5.8289758922813162e-01  5.9363498304048667e-01  6.0387626405753914e-01  6.1362929315654058e-01  6.2290243032918891e-01  6.3170422454675534e-01  6.4004312249199391e-01  6.4792721921487484e-01  6.5536406717166007e-01  6.6236055140592098e-01  6.6892283056009749e-01  6.7505633771134221e-01  6.8076583196980223e-01  6.8605549060019266e-01  6.9092903113383508e-01  6.9538985286408450e-01  6.9944118709190550e-01  7.0308624570648892e-01  7.0632835847863462e-01  7.0917109106167420e-01  7.1161833817373732e-01  7.1367438957854756e-01  7.1534396992529015e-01  7.1663225683496146e-01  7.1754488446546105e-01  7.1808794188781344e-01  7.1826797679547338e-01  7.1809201523904997e-01  7.1756760714402390e-01  7.1670290527255409e-01  7.1550678206720764e-01  7.1398898468261629e-01  7.1216032392828721e-01  7.1003288845628254e-01  7.0762027197901478e-01  7.0493779900057907e-01  7.0200273347252529e-01  6.9883445448557713e-01  6.9545458284153050e-01  6.9188704134031620e-01  6.8815802933994830e-01  6.8429588861187052e-01  6.8033083350777956e-01  6.7629451550920827e-01  6.7221939196079161e-01  6.6813787149162729e-01  6.6408121191092839e-01  6.6007814517495611e-01  6.5615319282485174e-01  6.5232461100288863e-01  6.4860186725737834e-01  6.4498250405904378e-01  6.4144818688268346e-01  6.3795966432934570e-01  6.3445027524463571e-01  6.3081750778163193e-01  6.2691192303408472e-01  6.2252246148046864e-01  6.1735669096691437e-01  6.1101382877332133e-01  6.0294720243232935e-01  5.9241087079841837e-01  5.7838171759431989e-01  5.5944194836072136e-01  5.3359415454471681e-01  4.9795391320345633e-01  4.4820419571836811e-01  3.7756914364990046e-01  2.7515116710254645e-01  1.4237172979226365e-01  0.0000000000000000e+00  2.6700965091048232e-02  5.2793637901473553e-02  7.8287929625898756e-02  1.0319467025644855e-01  1.2752556856253713e-01  1.5129318698244645e-01  1.7451078045215743e-01  1.9719195259765027e-01  2.1935016125541171e-01  2.4099815011961034e-01  2.6214739745745003e-01  2.8280765934010188e-01  3.0298665169135919e-01  3.2268987858429221e-01  3.4192058940509190e-01  3.6067984067704706e-01  3.7896664464147073e-01  3.9677819676476028e-01  4.1411018033796942e-01  4.3095714438589894e-01  4.4731294158330731e-01  4.6317119998278045e-01  4.7852579249156341e-01  4.9337126651227398e-01  5.0770320397385715e-01  5.2151849529695182e-01  5.3481552382839859e-01  5.4759426572355152e-01  5.5985631322162621e-01  5.7160482839857552e-01  5.8284443239171113e-01  5.9358103410062324e-01  6.0382160397313056e-01  6.1357390301208248e-01  6.2284618349390608e-01  6.3164688370379929e-01  6.3998434156429040e-01  6.4786654978410818e-01  6.5530096860021292e-01  6.6229440361662784e-01  6.6885294833091258e-01  6.7498198536951903e-01  6.8068623747011081e-01  6.8596985810625932e-01  6.9083655138168865e-01  6.9528971078233703e-01  6.9933256639272734e-01  7.0296833043745877e-01  7.0620033180776520e-01  7.0903213181324121e-01  7.1146761580025331e-01  7.1351105832037887e-01  7.1516716287309068e-01  7.1644108049008126e-01  7.1733841421953481e-01  7.1786521864693120e-01  7.1802800478635720e-01  7.1783376088062245e-01  7.1728999877044175e-01  7.1640483347151818e-01  7.1518710046091660e-01  7.1364651112793043e-01  7.1179384233560483e-01  7.0964115170374165e-01  7.0720200671075784e-01  7.0449171343552586e-01  7.0152752972108956e-01  6.9832884730670963e-01  6.9491732733106404e-01  6.9131697281881710e-01  6.8755411983229364e-01  6.8365732591507244e-01  6.7965713100098679e-01  6.7558566350064853e-01  6.7147606426150097e-01  6.6736170381388193e-01  6.6327517166688033e-01  6.5924701593314239e-01  6.5530420227908592e-01  6.5146824029752881e-01  6.4775289335446296e-01  6.4416134707828709e-01  6.4068266322945189e-01  6.3728728776974164e-01  6.3392130848537420e-01  6.3049905782444060e-01  6.2689351413692140e-01  6.2292374498321212e-01  6.1833832638233277e-01  6.1279321967985023e-01  6.0582194239913834e-01  5.9679497448142871e-01  5.8486416774944094e-01  5.6888667022657768e-01  5.4732289026997605e-01  5.1811103826771399e-01  4.7856916291872886e-01  4.2563137124544176e-01  3.5812461561976516e-01  2.8184285212220994e-01  0.0000000000000000e+00  2.6682936065712509e-02  5.2761659326754674e-02  7.8245748996516401e-02  1.0314563716680478e-01  1.2747259131110611e-01  1.5123870267823589e-01  1.7445673230578124e-01  1.9713977525049836e-01  2.1930078130703928e-01  2.4095200953460819e-01  2.6210450216401360e-01  2.8276764818637540e-01  3.0294887658429670e-01  3.2265348680742795e-01  3.4188460228867579e-01  3.6064322631300394e-01  3.7892838438240734e-01  3.9673734542770434e-01  4.1406591893528505e-01  4.3090882281378540e-01  4.4726010799301580e-01  4.6311361415866248e-01  4.7846342240480627e-01  4.9330426956710599e-01  5.0763189632879469e-01  5.2144331340234129e-01  5.3473698199722763e-01  5.4751291263324087e-01  5.5977268928425428e-01  5.7151942527959310e-01  5.8275765568828808e-01  5.9349317022025749e-01  6.0373279240747479e-01  6.1348411528381586e-01  6.2275520989871780e-01  6.3155432849922377e-01  6.3988962653472881e-01  6.4776892532143260e-01  6.5519953079732485e-01  6.6218811551390844e-01  6.6874066338906313e-01  6.7486247137624344e-01  6.8055819931209605e-01  6.8583195808349307e-01  6.9068742599725430e-01  6.9512798323142577e-01  6.9915685432324837e-01  7.0277724895764659e-01  7.0599249213518644e-01  7.0880613633321321e-01  7.1122205056829524e-01  7.1324448416274056e-01  7.1487810620387326e-01  7.1612802479499305e-01  7.1699979289554072e-01  7.1749940958099145e-01  7.1763332675099878e-01  7.1740847156197729e-01  7.1683229406534821e-01  7.1591284762969054e-01  7.1465890673174171e-01  7.1308012280779676e-01  7.1118721448761524e-01  7.0899218430512667e-01  7.0650855053568873e-01  7.0375158057492360e-01  7.0073851127747921e-01  6.9748874152322116e-01  6.9402398231121920e-01  6.9036834921467527e-01  6.8654838061749413e-01  6.8259296281793813e-01  6.7853314046961632e-01  6.7440178913154381e-01  6.7023312715164496e-01  6.6606204697491367e-01  6.6192324954688275e-01  6.5785016610250702e-01  6.5387364516436786e-01  6.5002036665539531e-01  6.4631092017707348e-01  6.4275745315857979e-01  6.3936075891891231e-01  6.3610663484936458e-01  6.3296129453246186e-01  6.2986556008090244e-01  6.2672748627086383e-01  6.2341297077260927e-01  6.1973378634329757e-01  6.1543235383257855e-01  6.1016253375661256e-01  6.0346594545057786e-01  5.9474432615174344e-01  5.8323153100651270e-01  5.6797756385144371e-01  5.4788176719405801e-01  5.2188111119968938e-01  4.8956613430017754e-01  4.5249759909875986e-01  4.1557185499305199e-01  0.0000000000000000e+00  2.6657919940774915e-02  5.2717282585258443e-02  7.8187175458014402e-02  1.0307746795758790e-01  1.2739881506862263e-01  1.5116266001818615e-01  1.7438108878869846e-01  1.9706650484082122e-01  2.1923116951582836e-01  2.4088668583793724e-01  2.6204350470271548e-01  2.8271051504782746e-01  3.0289475253148296e-01  3.2260123420912196e-01  3.4183290854467951e-01  3.6059070417433126e-01  3.7887366405219486e-01  3.9667915765396133e-01  4.1400316713561813e-01  4.3084064079221851e-01  4.4718589919301865e-01  4.6303306933892974e-01  4.7837651499053102e-01  4.9321123080012791e-01  5.0753317456028169e-01  5.2133952274275031e-01  5.3462884512341513e-01  5.4740120144654125e-01  5.5965816598217344e-01  5.7140278566572900e-01  5.8263947630621538e-01  5.9337386103345635e-01  6.0361255700619665e-01  6.1336292068457565e-01  6.2263276766940501e-01  6.3143008811393220e-01  6.3976278068832948e-01  6.4763842573963948e-01  6.5506411219554805e-01  6.6204632495900217e-01  6.6859089236063785e-01  6.7470298813256724e-01  6.8038717955731354e-01  6.8564751230542420e-01  6.9048762218786885e-01  6.9491086405738001e-01  6.9892044822494170e-01  7.0251957513064645e-01  7.0571155985091627e-01  7.0849993951765811e-01  7.1088855890332470e-01  7.1288163215004807e-01  7.1448378161772119e-01  7.1570005776421142e-01  7.1653594654019925e-01  7.1699737273941355e-01  7.1709070892553683e-01  7.1682279984400921e-01  7.1620101152817550e-01  7.1523331255803779e-01  7.1392839213562531e-01  7.1229581597285485e-01  7.1034621683677490e-01  7.0809151254605318e-01  7.0554514088234876e-01  7.0272229870425751e-01  6.9964017159558811e-01  6.9631814031209827e-01  6.9277795052106361e-01  6.8904383224399024e-01  6.8514255462463236e-01  6.8110340018037530e-01  6.7695804110635593e-01  6.7274029947797431e-01  6.6848577433900003e-01  6.6423132189839229e-01  6.6001437909742899e-01  6.5587212283734664e-01  6.5184045400686319e-01  6.4795278534605605e-01  6.4423859578696530e-01  6.4072169380816979e-01  6.3741811152461980e-01  6.3433353186307984e-01  6.3146013442996007e-01  6.2877273276308832e-01  6.2622407001628932e-01  6.2373915217616194e-01  6.2120855524590313e-01  6.1848081074495320e-01  6.1535439514113210e-01  6.1157082289482445e-01  6.0681249030136231e-01  6.0071351949109331e-01  5.9290146002681821e-01  5.8310657849954162e-01  5.7140517032387017e-01  5.5866808281622593e-01  5.4714901283147299e-01  5.4083421335883153e-01  0.0000000000000000e+00  2.6626232735687903e-02  5.2661063273612287e-02  7.8112919629913000e-02  1.0299094475437461e-01  1.2730501658657045e-01  1.5106576371408345e-01  1.7428442907715766e-01  1.9697255741402603e-01  2.1914155902123933e-01  2.4080222754135605e-01  2.6196428347149309e-01  2.8263599555791941e-01  3.0282390859826969e-01  3.2253268468507601e-01  3.4176505066130392e-01  3.6052183939507459e-01  3.7880211414764703e-01  3.9660336917580602e-01  4.1392180141142926e-01  4.3075264524410822e-01  4.4709055543136111e-01  4.6293001477899243e-01  4.7826573747048112e-01  4.9309303883647926e-01  5.0740814826155356e-01  5.2120845132055715e-01  5.3449265649193134e-01  5.4726088822960117e-01  5.5951471106819373e-01  5.7125708972192002e-01  5.8249228950364051e-01  5.9322572148990360e-01  6.0346373879918080e-01  6.1321339433426925e-01  6.2248217543561579e-01  6.3127773522912245e-01  6.3960764201278086e-01  6.4747916574130981e-01  6.5489911506384002e-01  6.6187373125161053e-01  6.6840863875843470e-01  6.7450884737638250e-01  6.8017879820926586e-01  6.8542244447980361e-01  6.9024335782044666e-01  6.9464485068491333e-01  6.9863010569063810e-01  7.0220230313972765e-01  7.0536473884473050e-01  7.0812092584730701e-01  7.1047467568435785e-01  7.1243015740412541e-01  7.1399193532526040e-01  7.1516498927214833e-01  7.1595472342937849e-01  7.1636697181237075e-01  7.1640800949053518e-01  7.1608457901201450e-01  7.1540394087755221e-01  7.1437395533268411e-01  7.1300320019719388e-01  7.1130112607558793e-01  7.0927824644072857e-01  7.0694635628532432e-01  7.0431876987448627e-01  7.0141056603734653e-01  6.9823882851465180e-01  6.9482286887828748e-01  6.9118441995986335e-01  6.8734778804239449e-01  6.8333995195016217e-01  6.7919059664661385e-01  6.7493206847745124e-01  6.7059923956858614e-01  6.6622927088839512e-01  6.6186126730464401e-01  6.5753582268971889e-01  6.5329445674765063e-01  6.4917894552515976e-01  6.4523054340219610e-01  6.4148908659776893e-01  6.3799195954811583e-01  6.3477289946270254e-01  6.3186061457525866e-01  6.2927720192501579e-01  6.2703637626242037e-01  6.2514157246365243e-01  6.2358407881199907e-01  6.2234153630409494e-01  6.2137747538988708e-01  6.2064319786990718e-01  6.2008450076312327e-01  6.1965790345314342e-01  6.1936479599882643e-01  6.1931782891393250e-01  6.1986092446817853e-01  6.2176480986335447e-01  6.2649248196745211e-01  6.3645314678130460e-01  6.5507789717851861e-01  0.0000000000000000e+00  2.6588356709065852e-02  5.2593851456707710e-02  7.8024087071097717e-02  1.0288732309786407e-01  1.2719250613909069e-01  1.5094929628195863e-01  1.7416794054164855e-01  1.9685897531148999e-01  2.1903281659635482e-01  2.4069931506036341e-01  2.6186733999849926e-01  2.8254443495774817e-01  3.0273656747247951e-01  3.2244797920335477e-01  3.4168113227532321e-01  3.6043674330277958e-01  3.7871389692488144e-01  3.9651023255412615e-01  4.1382219835737510e-01  4.3064536349459165e-01  4.4697477364176030e-01  4.6280532805313707e-01  4.7813215198973019e-01  4.9295093857503058e-01  5.0725823921098334e-01  5.2105168960291093e-01  5.3433016633529495e-01  5.4709387465313097e-01  5.5934437099173073e-01  5.7108452454802294e-01  5.8231842214174356e-01  5.9305122112918129e-01  6.0328895711163122e-01  6.1303831675373499e-01  6.2230639037467661e-01  6.3110042252798249e-01  6.3942757989909815e-01  6.4729475368576428e-01  6.5470840865206059e-01  6.6167448476404644e-01  6.6819835141917261e-01  6.7428480987655681e-01  6.7993813682516513e-01  6.8516216072396652e-01  6.8996036206583489e-01  6.9433598865053714e-01  6.9829217714490688e-01  7.0183207270046843e-01  7.0495893931391407e-01  7.0767625505278964e-01  7.0998778823158959e-01  7.1189765299933772e-01  7.1341034538002768e-01  7.1453076333656795e-01  7.1526421665864892e-01  7.1561643420170340e-01  7.1559357708028681e-01  7.1520226674101051e-01  7.1444963632945890e-01  7.1334341236913290e-01  7.1189203149390157e-01  7.1010479394508230e-01  7.0799205206041749e-01  7.0556542850967907e-01  7.0283805609551886e-01  6.9982482895242182e-01  6.9654265408937999e-01  6.9301069226738121e-01  6.8925057779130072e-01  6.8528660749770387e-01  6.8114588976258372e-01  6.7685844476144175e-01  6.7245724785572780e-01  6.6797820947019060e-01  6.6346008775996612e-01  6.5894433491101112e-01  6.5447488347167537e-01  6.5009788436228544e-01  6.4586141175514500e-01  6.4181515133604139e-01  6.3801008860379760e-01  6.3449821548337337e-01  6.3133228034359379e-01  6.2856562288218942e-01  6.2625216648375537e-01  6.2444669383171492e-01  6.2320561848992950e-01  6.2258860623028556e-01  6.2266163074949610e-01  6.2350242963766123e-01  6.2520995450413541e-01  6.2792042146938176e-01  6.3183411491288566e-01  6.3725919878358606e-01  6.4468088687036873e-01  6.5486423015376272e-01  6.6899141207681179e-01  6.8881360279350468e-01  7.1676585230779233e-01  7.5597536514673225e-01  0.0000000000000000e+00  2.6544945414121092e-02  5.2516800504375183e-02  7.7922188394777048e-02  1.0276834147503214e-01  1.2706313561947308e-01  1.5081512482657564e-01  1.7403342514887468e-01  1.9672743465272868e-01  2.1890645282754367e-01  2.4057927494776116e-01  2.6175381798993080e-01  2.8243681196396930e-01  3.0263357344209552e-01  3.2234786664624188e-01  3.4158185033696925e-01  3.6033610530022586e-01  3.7860973651055702e-01  3.9640054427166505e-01  4.1370525780829304e-01  4.3051982172566094e-01  4.4683972073685252e-01  4.6266032277284552e-01  4.7797721733968795e-01  4.9278652644460491e-01  5.0708516965296224e-01  5.2087107134189869e-01  5.3414330481073524e-01  5.4690217291633680e-01  5.5914922776298426e-01  5.7088723315730627e-01  5.8212007405055632e-01  5.9285261807990430e-01  6.0309053627841658e-01  6.1284009310873422e-01  6.2210791950204847e-01  6.3090078531023486e-01  6.3922538824803621e-01  6.4708817440298760e-01  6.5449520111468318e-01  6.6145204765096277e-01  6.6796377397626994e-01  6.7403492392410336e-01  6.7966956650884192e-01  6.8487136771490764e-01  6.8964368448854041e-01  6.9398967251550148e-01  6.9791239955789741e-01  7.0141495665312326e-01  7.0450056042102283e-01  7.0717264113797262e-01  7.0943491310253859e-01  7.1129142602930973e-01  7.1274659858239420e-01  7.1380523747656710e-01  7.1447254761548173e-01  7.1475414032227158e-01  7.1465604771549696e-01  7.1418475160036543e-01  7.1334723481610895e-01  7.1215106176553389e-01  7.1060449286259741e-01  7.0871663497735771e-01  7.0649762688634121e-01  7.0395885564248295e-01  7.0111319711852071e-01  6.9797527213531985e-01  6.9456170874258438e-01  6.9089140129699833e-01  6.8698575770766057e-01  6.8286892726410486e-01  6.7856800261363326e-01  6.7411319072848297e-01  6.6953794937841693e-01  6.6487908816178298e-01  6.6017683699091545e-01  6.5547489022775296e-01  6.5082044108143888e-01  6.4626422764895486e-01  6.4186061836576602e-01  6.3766777058960200e-01  6.3374790273045833e-01  6.3016773023507944e-01  6.2699913235942706e-01  6.2432014436225169e-01  6.2221641387675686e-01  6.2078332795666613e-01  6.2012911924582648e-01  6.2037941216600467e-01  6.2168389758303000e-01  6.2422616190467894e-01  6.2823818630490758e-01  6.3402170639286504e-01  6.4197944902772186e-01  6.5266000123795165e-01  6.6681999942903647e-01  6.8550496668954042e-01  7.1014349517659792e-01  7.4263809525746449e-01  7.8542456377272862e-01  8.4147098480789650e-01  0.0000000000000000e+00  2.6496815196321966e-02  5.2431350068915354e-02  7.7809112229218186e-02  1.0263618301961488e-01  1.2691924863004625e-01  1.5066564021796913e-01  1.7388322938186568e-01  1.9658016836621703e-01  2.1876454096741263e-01  2.4044399720971654e-01  2.6162542131133354e-01  2.8231465894870578e-01  3.0251631559516912e-01  3.2223363026730373e-01  3.4146842471117284e-01  3.6022112540939583e-01  3.7849085432170038e-01  3.9627558323689638e-01  4.1357234494744427e-01  4.3037749145919130e-01  4.466869853