<?xml version="1.0"?>
<VTKFile type="UnstructuredGrid"  version="0.1"  >
<UnstructuredGrid>
<Piece  NumberOfPoints="20201" NumberOfCells="40000">
<Points>
<DataArray  type="Float64"  NumberOfComponents="3"  format="ascii">0 0 0  1 0 0  2 0 0  3 0 0  4 0 0  5 0 0  6 0 0  7 0 0  8 0 0  9 0 0  10 0 0  11 0 0  12 0 0  13 0 0  14 0 0  15 0 0  16 0 0  17 0 0  18 0 0  19 0 0  20 0 0  21 0 0  22 0 0  23 0 0  24 0 0  25 0 0  26 0 0  27 0 0  28 0 0  29 0 0  30 0 0  31 0 0  32 0 0  33 0 0  34 0 0  35 0 0  36 0 0  37 0 0  38 0 0  39 0 0  40 0 0  41 0 0  42 0 0  43 0 0  44 0 0  45 0 0  46 0 0  47 0 0  48 0 0  49 0 0  50 0 0  51 0 0  52 0 0  53 0 0  54 0 0  55 0 0  56 0 0  57 0 0  58 0 0  59 0 0  60 0 0  61 0 0  62 0 0  63 0 0  64 0 0  65 0 0  66 0 0  67 0 0  68 0 0  69 0 0  70 0 0  71 0 0  72 0 0  73 0 0  74 0 0  75 0 0  76 0 0  77 0 0  78 0 0  79 0 0  80 0 0  81 0 0  82 0 0  83 0 0  84 0 0  85 0 0  86 0 0  87 0 0  88 0 0  89 0 0  90 0 0  91 0 0  92 0 0  93 0 0  94 0 0  95 0 0  96 0 0  97 0 0  98 0 0  99 0 0  100 0 0  0 1 0  1 1 0  2 1 0  3 1 0  4 1 0  5 1 0  6 1 0  7 1 0  8 1 0  9 1 0  10 1 0  11 1 0  12 1 0  13 1 0  14 1 0  15 1 0  16 1 0  17 1 0  18 1 0  19 1 0  20 1 0  21 1 0  22 1 0  23 1 0  24 1 0  25 1 0  26 1 0  27 1 0  28 1 0  29 1 0  30 1 0  31 1 0  32 1 0  33 1 0  34 1 0  35 1 0  36 1 0  37 1 0  38 1 0  39 1 0  40 1 0  41 1 0  42 1 0  43 1 0  44 1 0  45 1 0  46 1 0  47 1 0  48 1 0  49 1 0  50 1 0  51 1 0  52 1 0  53 1 0  54 1 0  55 1 0  56 1 0  57 1 0  58 1 0  59 1 0  60 1 0  61 1 0  62 1 0  63 1 0  64 1 0  65 1 0  66 1 0  67 1 0  68 1 0  69 1 0  70 1 0  71 1 0  72 1 0  73 1 0  74 1 0  75 1 0  76 1 0  77 1 0  78 1 0  79 1 0  80 1 0  81 1 0  82 1 0  83 1 0  84 1 0  85 1 0  86 1 0  87 1 0  88 1 0  89 1 0  90 1 0  91 1 0  92 1 0  93 1 0  94 1 0  95 1 0  96 1 0  97 1 0  98 1 0  99 1 0  100 1 0  0 2 0  1 2 0  2 2 0  3 2 0  4 2 0  5 2 0  6 2 0  7 2 0  8 2 0  9 2 0  10 2 0  11 2 0  12 2 0  13 2 0  14 2 0  15 2 0  16 2 0  17 2 0  18 2 0  19 2 0  20 2 0  21 2 0  22 2 0  23 2 0  24 2 0  25 2 0  26 2 0  27 2 0  28 2 0  29 2 0  30 2 0  31 2 0  32 2 0  33 2 0  34 2 0  35 2 0  36 2 0  37 2 0  38 2 0  39 2 0  40 2 0  41 2 0  42 2 0  43 2 0  44 2 0  45 2 0  46 2 0  47 2 0  48 2 0  49 2 0  50 2 0  51 2 0  52 2 0  53 2 0  54 2 0  55 2 0  56 2 0  57 2 0  58 2 0  59 2 0  60 2 0  61 2 0  62 2 0  63 2 0  64 2 0  65 2 0  66 2 0  67 2 0  68 2 0  69 2 0  70 2 0  71 2 0  72 2 0  73 2 0  74 2 0  75 2 0  76 2 0  77 2 0  78 2 0  79 2 0  80 2 0  81 2 0  82 2 0  83 2 0  84 2 0  85 2 0  86 2 0  87 2 0  88 2 0  89 2 0  90 2 0  91 2 0  92 2 0  93 2 0  94 2 0  95 2 0  96 2 0  97 2 0  98 2 0  99 2 0  100 2 0  0 3 0  1 3 0  2 3 0  3 3 0  4 3 0  5 3 0  6 3 0  7 3 0  8 3 0  9 3 0  10 3 0  11 3 0  12 3 0  13 3 0  14 3 0  15 3 0  16 3 0  17 3 0  18 3 0  19 3 0  20 3 0  21 3 0  22 3 0  23 3 0  24 3 0  25 3 0  26 3 0  27 3 0  28 3 0  29 3 0  30 3 0  31 3 0  32 3 0  33 3 0  34 3 0  35 3 0  36 3 0  37 3 0  38 3 0  39 3 0  40 3 0  41 3 0  42 3 0  43 3 0  44 3 0  45 3 0  46 3 0  47 3 0  48 3 0  49 3 0  50 3 0  51 3 0  52 3 0  53 3 0  54 3 0  55 3 0  56 3 0  57 3 0  58 3 0  59 3 0  60 3 0  61 3 0  62 3 0  63 3 0  64 3 0  65 3 0  66 3 0  67 3 0  68 3 0  69 3 0  70 3 0  71 3 0  72 3 0  73 3 0  74 3 0  75 3 0  76 3 0  77 3 0  78 3 0  79 3 0  80 3 0  81 3 0  82 3 0  83 3 0  84 3 0  85 3 0  86 3 0  87 3 0  88 3 0  89 3 0  90 3 0  91 3 0  92 3 0  93 3 0  94 3 0  95 3 0  96 3 0  97 3 0  98 3 0  99 3 0  100 3 0  0 4 0  1 4 0  2 4 0  3 4 0  4 4 0  5 4 0  6 4 0  7 4 0  8 4 0  9 4 0  10 4 0  11 4 0  12 4 0  13 4 0  14 4 0  15 4 0  16 4 0  17 4 0  18 4 0  19 4 0  20 4 0  21 4 0  22 4 0  23 4 0  24 4 0  25 4 0  26 4 0  27 4 0  28 4 0  29 4 0  30 4 0  31 4 0  32 4 0  33 4 0  34 4 0  35 4 0  36 4 0  37 4 0  38 4 0  39 4 0  40 4 0  41 4 0  42 4 0  43 4 0  44 4 0  45 4 0  46 4 0  47 4 0  48 4 0  49 4 0  50 4 0  51 4 0  52 4 0  53 4 0  54 4 0  55 4 0  56 4 0  57 4 0  58 4 0  59 4 0  60 4 0  61 4 0  62 4 0  63 4 0  64 4 0  65 4 0  66 4 0  67 4 0  68 4 0  69 4 0  70 4 0  71 4 0  72 4 0  73 4 0  74 4 0  75 4 0  76 4 0  77 4 0  78 4 0  79 4 0  80 4 0  81 4 0  82 4 0  83 4 0  84 4 0  85 4 0  86 4 0  87 4 0  88 4 0  89 4 0  90 4 0  91 4 0  92 4 0  93 4 0  94 4 0  95 4 0  96 4 0  97 4 0  98 4 0  99 4 0  100 4 0  0 5 0  1 5 0  2 5 0  3 5 0  4 5 0  5 5 0  6 5 0  7 5 0  8 5 0  9 5 0  10 5 0  11 5 0  12 5 0  13 5 0  14 5 0  15 5 0  16 5 0  17 5 0  18 5 0  19 5 0  20 5 0  21 5 0  22 5 0  23 5 0  24 5 0  25 5 0  26 5 0  27 5 0  28 5 0  29 5 0  30 5 0  31 5 0  32 5 0  33 5 0  34 5 0  35 5 0  36 5 0  37 5 0  38 5 0  39 5 0  40 5 0  41 5 0  42 5 0  43 5 0  44 5 0  45 5 0  46 5 0  47 5 0  48 5 0  49 5 0  50 5 0  51 5 0  52 5 0  53 5 0  54 5 0  55 5 0  56 5 0  57 5 0  58 5 0  59 5 0  60 5 0  61 5 0  62 5 0  63 5 0  64 5 0  65 5 0  66 5 0  67 5 0  68 5 0  69 5 0  70 5 0  71 5 0  72 5 0  73 5 0  74 5 0  75 5 0  76 5 0  77 5 0  78 5 0  79 5 0  80 5 0  81 5 0  82 5 0  83 5 0  84 5 0  85 5 0  86 5 0  87 5 0  88 5 0  89 5 0  90 5 0  91 5 0  92 5 0  93 5 0  94 5 0  95 5 0  96 5 0  97 5 0  98 5 0  99 5 0  100 5 0  0 6 0  1 6 0  2 6 0  3 6 0  4 6 0  5 6 0  6 6 0  7 6 0  8 6 0  9 6 0  10 6 0  11 6 0  12 6 0  13 6 0  14 6 0  15 6 0  16 6 0  17 6 0  18 6 0  19 6 0  20 6 0  21 6 0  22 6 0  23 6 0  24 6 0  25 6 0  26 6 0  27 6 0  28 6 0  29 6 0  30 6 0  31 6 0  32 6 0  33 6 0  34 6 0  35 6 0  36 6 0  37 6 0  38 6 0  39 6 0  40 6 0  41 6 0  42 6 0  43 6 0  44 6 0  45 6 0  46 6 0  47 6 0  48 6 0  49 6 0  50 6 0  51 6 0  52 6 0  53 6 0  54 6 0  55 6 0  56 6 0  57 6 0  58 6 0  59 6 0  60 6 0  61 6 0  62 6 0  63 6 0  64 6 0  65 6 0  66 6 0  67 6 0  68 6 0  69 6 0  70 6 0  71 6 0  72 6 0  73 6 0  74 6 0  75 6 0  76 6 0  77 6 0  78 6 0  79 6 0  80 6 0  81 6 0  82 6 0  83 6 0  84 6 0  85 6 0  86 6 0  87 6 0  88 6 0  89 6 0  90 6 0  91 6 0  92 6 0  93 6 0  94 6 0  95 6 0  96 6 0  97 6 0  98 6 0  99 6 0  100 6 0  0 7 0  1 7 0  2 7 0  3 7 0  4 7 0  5 7 0  6 7 0  7 7 0  8 7 0  9 7 0  10 7 0  11 7 0  12 7 0  13 7 0  14 7 0  15 7 0  16 7 0  17 7 0  18 7 0  19 7 0  20 7 0  21 7 0  22 7 0  23 7 0  24 7 0  25 7 0  26 7 0  27 7 0  28 7 0  29 7 0  30 7 0  31 7 0  32 7 0  33 7 0  34 7 0  35 7 0  36 7 0  37 7 0  38 7 0  39 7 0  40 7 0  41 7 0  42 7 0  43 7 0  44 7 0  45 7 0  46 7 0  47 7 0  48 7 0  49 7 0  50 7 0  51 7 0  52 7 0  53 7 0  54 7 0  55 7 0  56 7 0  57 7 0  58 7 0  59 7 0  60 7 0  61 7 0  62 7 0  63 7 0  64 7 0  65 7 0  66 7 0  67 7 0  68 7 0  69 7 0  70 7 0  71 7 0  72 7 0  73 7 0  74 7 0  75 7 0  76 7 0  77 7 0  78 7 0  79 7 0  80 7 0  81 7 0  82 7 0  83 7 0  84 7 0  85 7 0  86 7 0  87 7 0  88 7 0  89 7 0  90 7 0  91 7 0  92 7 0  93 7 0  94 7 0  95 7 0  96 7 0  97 7 0  98 7 0  99 7 0  100 7 0  0 8 0  1 8 0  2 8 0  3 8 0  4 8 0  5 8 0  6 8 0  7 8 0  8 8 0  9 8 0  10 8 0  11 8 0  12 8 0  13 8 0  14 8 0  15 8 0  16 8 0  17 8 0  18 8 0  19 8 0  20 8 0  21 8 0  22 8 0  23 8 0  24 8 0  25 8 0  26 8 0  27 8 0  28 8 0  29 8 0  30 8 0  31 8 0  32 8 0  33 8 0  34 8 0  35 8 0  36 8 0  37 8 0  38 8 0  39 8 0  40 8 0  41 8 0  42 8 0  43 8 0  44 8 0  45 8 0  46 8 0  47 8 0  48 8 0  49 8 0  50 8 0  51 8 0  52 8 0  53 8 0  54 8 0  55 8 0  56 8 0  57 8 0  58 8 0  59 8 0  60 8 0  61 8 0  62 8 0  63 8 0  64 8 0  65 8 0  66 8 0  67 8 0  68 8 0  69 8 0  70 8 0  71 8 0  72 8 0  73 8 0  74 8 0  75 8 0  76 8 0  77 8 0  78 8 0  79 8 0  80 8 0  81 8 0  82 8 0  83 8 0  84 8 0  85 8 0  86 8 0  87 8 0  88 8 0  89 8 0  90 8 0  91 8 0  92 8 0  93 8 0  94 8 0  95 8 0  96 8 0  97 8 0  98 8 0  99 8 0  100 8 0  0 9 0  1 9 0  2 9 0  3 9 0  4 9 0  5 9 0  6 9 0  7 9 0  8 9 0  9 9 0  10 9 0  11 9 0  12 9 0  13 9 0  14 9 0  15 9 0  16 9 0  17 9 0  18 9 0  19 9 0  20 9 0  21 9 0  22 9 0  23 9 0  24 9 0  25 9 0  26 9 0  27 9 0  28 9 0  29 9 0  30 9 0  31 9 0  32 9 0  33 9 0  34 9 0  35 9 0  36 9 0  37 9 0  38 9 0  39 9 0  40 9 0  41 9 0  42 9 0  43 9 0  44 9 0  45 9 0  46 9 0  47 9 0  48 9 0  49 9 0  50 9 0  51 9 0  52 9 0  53 9 0  54 9 0  55 9 0  56 9 0  57 9 0  58 9 0  59 9 0  60 9 0  61 9 0  62 9 0  63 9 0  64 9 0  65 9 0  66 9 0  67 9 0  68 9 0  69 9 0  70 9 0  71 9 0  72 9 0  73 9 0  74 9 0  75 9 0  76 9 0  77 9 0  78 9 0  79 9 0  80 9 0  81 9 0  82 9 0  83 9 0  84 9 0  85 9 0  86 9 0  87 9 0  88 9 0  89 9 0  90 9 0  91 9 0  92 9 0  93 9 0  94 9 0  95 9 0  96 9 0  97 9 0  98 9 0  99 9 0  100 9 0  0 10 0  1 10 0  2 10 0  3 10 0  4 10 0  5 10 0  6 10 0  7 10 0  8 10 0  9 10 0  10 10 0  11 10 0  12 10 0  13 10 0  14 10 0  15 10 0  16 10 0  17 10 0  18 10 0  19 10 0  20 10 0  21 10 0  22 10 0  23 10 0  24 10 0  25 10 0  26 10 0  27 10 0  28 10 0  29 10 0  30 10 0  31 10 0  32 10 0  33 10 0  34 10 0  35 10 0  36 10 0  37 10 0  38 10 0  39 10 0  40 10 0  41 10 0  42 10 0  43 10 0  44 10 0  45 10 0  46 10 0  47 10 0  48 10 0  49 10 0  50 10 0  51 10 0  52 10 0  53 10 0  54 10 0  55 10 0  56 10 0  57 10 0  58 10 0  59 10 0  60 10 0  61 10 0  62 10 0  63 10 0  64 10 0  65 10 0  66 10 0  67 10 0  68 10 0  69 10 0  70 10 0  71 10 0  72 10 0  73 10 0  74 10 0  75 10 0  76 10 0  77 10 0  78 10 0  79 10 0  80 10 0  81 10 0  82 10 0  83 10 0  84 10 0  85 10 0  86 10 0  87 10 0  88 10 0  89 10 0  90 10 0  91 10 0  92 10 0  93 10 0  94 10 0  95 10 0  96 10 0  97 10 0  98 10 0  99 10 0  100 10 0  0 11 0  1 11 0  2 11 0  3 11 0  4 11 0  5 11 0  6 11 0  7 11 0  8 11 0  9 11 0  10 11 0  11 11 0  12 11 0  13 11 0  14 11 0  15 11 0  16 11 0  17 11 0  18 11 0  19 11 0  20 11 0  21 11 0  22 11 0  23 11 0  24 11 0  25 11 0  26 11 0  27 11 0  28 11 0  29 11 0  30 11 0  31 11 0  32 11 0  33 11 0  34 11 0  35 11 0  36 11 0  37 11 0  38 11 0  39 11 0  40 11 0  41 11 0  42 11 0  43 11 0  44 11 0  45 11 0  46 11 0  47 11 0  48 11 0  49 11 0  50 11 0  51 11 0  52 11 0  53 11 0  54 11 0  55 11 0  56 11 0  57 11 0  58 11 0  59 11 0  60 11 0  61 11 0  62 11 0  63 11 0  64 11 0  65 11 0  66 11 0  67 11 0  68 11 0  69 11 0  70 11 0  71 11 0  72 11 0  73 11 0  74 11 0  75 11 0  76 11 0  77 11 0  78 11 0  79 11 0  80 11 0  81 11 0  82 11 0  83 11 0  84 11 0  85 11 0  86 11 0  87 11 0  88 11 0  89 11 0  90 11 0  91 11 0  92 11 0  93 11 0  94 11 0  95 11 0  96 11 0  97 11 0  98 11 0  99 11 0
[...]
<PointData  Scalars="f_3357-2"> 
<DataArray  type="Float64"  Name="f_3357-2"  format="ascii">0.0000000000000000e+00  2.6718176955971250e-02  5.2824099130767625e-02  7.8327783970036743e-02  1.0324019558442792e-01  1.2757316209562483e-01  1.5133939945563663e-01  1.7455246596042595e-01  1.9722652506631705e-01  2.1937587095669805e-01  2.4101426562853293e-01  2.6215421772607606e-01  2.8280635885583905e-01  3.0297902677093036e-01  3.2267807975257423e-01  3.4190689730732404e-01  3.6066650015677887e-01  3.7895574101820118e-01  3.9677155104430556e-01  4.1410925168367857e-01  4.3096294642401167e-01  4.4732599131858036e-01  4.6319151682066395e-01  4.7855295120790353e-01  4.9340449049843238e-01  5.0774147384060764e-01  5.2156064820175929e-01  5.3486032885378976e-01  5.4764047412173722e-01  5.5990269325038655e-01  5.7165019932353023e-01  5.8288771035160014e-01  5.9362129526074980e-01  6.0385816044464891e-01  6.1360637807420160e-01  6.2287456847634193e-01  6.3167156164906946e-01  6.4000607158845790e-01  6.4788641697365845e-01  6.5532031250183809e-01  6.6231474091985409e-01  6.6887590242312234e-01  6.7500922965450239e-01  6.8071945372443554e-01  6.8601070763350269e-01  6.9088665569657992e-01  6.9535063929060881e-01  6.9940582991383238e-01  7.0305538050827343e-01  7.0630256601762054e-01  7.0915090493544986e-01  7.1160425551363615e-01  7.1366688329313643e-01  7.1534350029303473e-01  7.1663927999738875e-01  7.1755985569372294e-01  7.1811131235769721e-01  7.1830018388782735e-01  7.1813346786726839e-01  7.1761866896412452e-01  7.1676387942721731e-01  7.1557790094968599e-01  7.1407040689998291e-01  7.1225213842147395e-01  7.1013512325672978e-01  7.0773290325415528e-01  7.0506075567617477e-01  7.0213589421554023e-01  6.9897763698544324e-01  6.9560752931383463e-01  6.9204940760637335e-01  6.8832938592060300e-01  6.8447573926648508e-01  6.8051864876281543e-01  6.7648976735682365e-01  6.7242156526450125e-01  6.6834642337236616e-01  6.6429545610323359e-01  6.6029705207658995e-01  6.5637511014124117e-01  6.5254691568808532e-01  6.4882055218777734e-01  6.4519168398086590e-01  6.4163948293959161e-01  6.3812140022275965e-01  6.3456639327074915e-01  6.3086608725562165e-01  6.2686314738091520e-01  6.2233581382193082e-01  6.1697702871919036e-01  6.1036574416547362e-01  6.0192662345759229e-01  5.9087198069784364e-01  5.7611543150224531e-01  5.5613798046032248e-01  5.2876817538908449e-01  4.9079146015121744e-01  4.3717200501395470e-01  3.5920081630405437e-01  2.3842600989170390e-01  0.0000000000000000e+00  0.0000000000000000e+00  2.6714610665396061e-02  5.2817732515332505e-02  7.8319339823937184e-02  1.0323033813724364e-01  1.2756248449862356e-01  1.5132841257516402e-01  1.7454158766127081e-01  1.9721607062392438e-01  2.1936604699329615e-01  2.4100517062020596e-01  2.6214585074160185e-01  2.8279863546891254e-01  3.0297179890323400e-01  3.2267115586969214e-01  3.4190006066553458e-01  3.6065952449749616e-01  3.7894840421764048e-01  3.9676364742334158e-01  4.1410060317975161e-01  4.3095341207367338e-01  4.4731547397374632e-01  4.6317996605603523e-01  4.7854036199138927e-01  4.9339089807031350e-01  5.0772694592885503e-01  5.2154527591163813e-01  5.3484421734194443e-01  5.4762373373253359e-01  5.5988543139060942e-01  5.7163251310076468e-01  5.8286967991180971e-01  5.9360297779014315e-01  6.0383958490099854e-01  6.1358754083680955e-01  6.2285543020017986e-01  6.3165204562353472e-01  6.3998606380337475e-01  6.4786576790306449e-01  6.5529884039655084e-01  6.6229223623016409e-01  6.6885213289606271e-01  6.7498394565830322e-01  6.8069239340743060e-01  6.8598160158895061e-01  6.9085523086322020e-01  6.9531662187738386e-01  6.9936894721049803e-01  7.0301536153985211e-01  7.0625914111391297e-01  7.0910380439810627e-01  7.1155320764874475e-01  7.1361161211833679e-01  7.1528372321839351e-01  7.1657470572527915e-01  7.1749018250032581e-01  7.1803622682650547e-01  7.1821936008190990e-01  7.1804656686724155e-01  7.1752533867373769e-01  7.1666375456327236e-01  7.1547060318515088e-01  7.1395554520834581e-01  7.1212930976159172e-01  7.1000391382653705e-01  7.0759289062079522e-01  7.0491151215996617e-01  7.0197699197379015e-01  6.9880865532482939e-01  6.9542806488461539e-01  6.9185908834815824e-01  6.8812789001665420e-01  6.8426282101354008e-01  6.8029417422806915e-01  6.7625376390645531e-01  6.7217429028873299e-01  6.6808845852911258e-01  6.6402783408218768e-01  6.6002142359253291e-01  6.5609396031639944e-01  6.5226384195100895e-01  6.4854062085194752e-01  6.4492189016498713e-01  6.4138934906924450e-01  6.3790376329865517e-01  6.3439845279438023e-01  6.3077081829574966e-01  6.2687123395594391e-01  6.2248833976643236e-01  6.1732930165918876e-01  6.1099287270848657e-01  6.0293192013023189e-01  5.9240014650955641e-01  5.7837431922070259e-01  5.5943689537218955e-01  5.3359108358939555e-01  4.9795315770219795e-01  4.4820628168769711e-01  3.7757370866545958e-01  2.7515583737605748e-01  1.4237172979226365e-01  0.0000000000000000e+00  2.6703926934887469e-02  5.2798662345344465e-02  7.8294044778335473e-02  1.0320080085069999e-01  1.2753047297461445e-01  1.5129544801257633e-01  1.7450891373009542e-01  1.9718462613273890e-01  2.1933644883427769e-01  2.4097771571159801e-01  2.6212054175064547e-01  2.8277522736817146e-01  3.0294985715403894e-01  3.2265011597486842e-01  3.4187928237734844e-01  3.6063833877352874e-01  3.7892615420177872e-01  3.9673972532771906e-01  4.1407448354431503e-01  4.3092467977325372e-01  4.4728384389730247e-01  4.6314529153391853e-01  4.7850263082817518e-01  4.9335021752966995e-01  5.0768351993766070e-01  5.2149937832827675e-01  5.3479616447009659e-01  5.4757385802307557e-01  5.5983405712867818e-01  5.7157993416802666e-01  5.8281613947943189e-01  5.9354864991787526e-01  6.0378455834224343e-01  6.1353180572466970e-01  6.2279886854620459e-01  6.3159442654014164e-01  6.3992704399328437e-01  6.4780489733426572e-01  6.5523557242088148e-01  6.6222594093435250e-01  6.6878211230037077e-01  6.7490944945199727e-01  6.8061263410401884e-01  6.8589576818636500e-01  6.9076250026423569e-01  6.9521616748682857e-01  6.9925994432471128e-01  7.0289698940795364e-01  7.0613058186592603e-01  7.0896423934984754e-01  7.1140181174033645e-01  7.1344754736807814e-01  7.1510613205542306e-01  7.1638270491827194e-01  7.1728285816693627e-01  7.1781263074203328e-01  7.1797850725773305e-01  7.1778743418506485e-01  7.1724686427527651e-01  7.1636483772587378e-01  7.1515010455988015e-01  7.1361228753232098e-01  7.1176207943784886e-01  7.0961146404799225e-01  7.0717394697096236e-01  7.0446478184781813e-01  7.0150117807430046e-01  6.9830247764605990e-01  6.9489028944964615e-01  6.9128856811115513e-01  6.8752362055021776e-01  6.8362401676698381e-01  6.7962037371045170e-01  6.7554497561770188e-01  6.7143119481023983e-01  6.6731268514913034e-01  6.6322233245630169e-01  6.5919095315162524e-01  6.5524572440660833e-01  6.5140830220146229e-01  6.4769254162825030e-01  6.4410168434926485e-01  6.4062482653237340e-01  6.3723242580197714e-01  6.3387054014288891e-01  6.3045340146714934e-01  6.2685379089390902e-01  6.2289047332018177e-01  6.1831163182885229e-01  6.1277278203584673e-01  6.0580700154500888e-01  5.9678442404963239e-01  5.8485677235805145e-01  5.6888140722057712e-01  5.4731930570016685e-01  5.1810935992919505e-01  4.7856988938104156e-01  4.2563432936483520e-01  3.5812797618745090e-01  2.8184285212220994e-01  0.0000000000000000e+00  2.6686182908897727e-02  5.2766998522356091e-02  7.8252040690810265e-02  1.0315172808745328e-01  1.2747724121863716e-01  1.5124055581899570e-01  1.7445440166601534e-01  1.9713203560827036e-01  2.1928679721629329e-01  2.4093150097885704e-01  2.6207778401763598e-01  2.8273554298929415e-01  3.0291255159502345e-01  3.2261427980138518e-01  3.4184387979764969e-01  3.6060228531341820e-01  3.7888838493345006e-01  3.9669925607434209e-01  4.1403046547448163e-01  4.3087644474336578e-01  4.4723093587649937e-01  4.6308747982969867e-01  4.7843990360959282e-01  4.9328275789986820e-01  5.0761166964844573e-01  5.2142359504032254e-01  5.3471697742234858e-01  5.4749182508672545e-01  5.5974972448926652e-01  5.7149379883532303e-01  5.8272861453561586e-01  5.9346003270181213e-01  6.0369500237182405e-01  6.1344129778427448e-01  6.2270721269427354e-01  6.3150123656809409e-01  6.3983174504804796e-01  6.4770673624699915e-01  6.5513363518761059e-01  6.6211917512865570e-01  6.6866935206877176e-01  6.7478944100252047e-01  6.8048406000148332e-01  6.8575726913051482e-01  6.9061269329622610e-01  6.9505365979820777e-01  6.9908334211630496e-01  7.0270490161683719e-01  7.0592161903448525e-01  7.0873700837925346e-01  7.1115490765214573e-01  7.1317954340751355e-01  7.1481556946875313e-01  7.1606808353813645e-01  7.1694262859767821e-01  7.1744518852659367e-01  7.1758218900647064e-01  7.1736051532758716e-01  7.1678755792084770e-01  7.1587129412922967e-01  7.1462041089948236e-01  7.1304446808929067e-01  7.1115409675199681e-01  7.0896122214358270e-01  7.0647929822530353e-01  7.0372353949557354e-01  7.0071113672271002e-01  6.9746144459477399e-01  6.9399613020066109e-01  6.9033927044785381e-01  6.8651738329453471e-01  6.8255937216779838e-01  6.7849635659344165e-01  6.7436135770535188e-01  6.7018880818236615e-01  6.6601386362330262e-01  6.6187150339326806e-01  6.5779541608410919e-01  6.5381665973156478e-01  6.4996206617336871e-01  6.4625232556071166e-01  6.4269964813736902e-01  6.3930486182695279e-01  6.3605376717725182e-01  6.3291253210288989e-01  6.2982185993502382e-01  6.2668959512738198e-01  6.2338133226874692e-01  6.1970846736301588e-01  6.1541300532923993e-01  6.1014839881862726e-01  6.0345593734840952e-01  5.9473721219175368e-01  5.8322623573245602e-01  5.6797350985054873e-01  5.4787903411672145e-01  5.2188015536381138e-01  4.8956703871370189e-01  4.5249927068208140e-01  4.1557185499305199e-01  0.0000000000000000e+00  2.6661508134329149e-02  5.2722985276854144e-02  7.8193650372008830e-02  1.0308347374071762e-01  1.2740312191594411e-01  1.5116399575177725e-01  1.7437819248261530e-01  1.9705828685307386e-01  2.1921690815461034e-01  2.4086617006582031e-01  2.6201706499678135e-01  2.8267894256126230e-01  3.0285915194727347e-01  3.2256286670562090e-01  3.4179306274224974e-01  3.6055060459262883e-01  3.7883440651832356e-01  3.9664165644826227e-01  4.1396810635920106e-01  4.3080843415685838e-01  4.4715666978725499e-01  4.6300665940761843e-01  4.7835252660772726e-01  4.9318908727461352e-01  5.0751218589894920e-01  5.2131893964577514e-01  5.3460789343374826e-01  5.4737909860300771e-01  5.5963412863643891e-01  5.7137604063974079e-01  5.8260928484720520e-01  5.9333955985834697e-01  6.0357361122276165e-01  6.1331897653996692e-01  6.2258369034253691e-01  6.3137597297986303e-01  6.3970393443591478e-01  6.4757532282881047e-01  6.5499733840336838e-01  6.6197652102140869e-01  6.6851870750631914e-01  6.7462904798331091e-01  6.8031206796849963e-01  6.8557176375973727e-01  6.9041172058153988e-01  6.9483524451398038e-01  6.9884550003140888e-01  7.0244564524226760e-01  7.0563895720910463e-01  7.0842894055585537e-01  7.1081941422198069e-01  7.1281457368915269e-01  7.1441902902773247e-01  7.1563782229878181e-01  7.1647643080966583e-01  7.1694076513735960e-01  7.1703717245900067e-01  7.1677245634552711e-01  7.1615392354962293e-01  7.1518946624922752e-01  7.1388768465826380e-01  7.1225805020276822e-01  7.1031110432681155e-01  7.0805868346033785e-01  7.0551415768190717e-01  7.0269266957555232e-01  6.9961136043421301e-01  6.9628957241659051e-01  6.9274901635899311e-01  6.8901389462793117e-01  6.8511096607211852e-01  6.8106953596986064e-01  6.7692134912441604e-01  6.7270036127178878e-01  6.6844236534309787e-01  6.6418445595914266e-01  6.5996432553118478e-01  6.5581939273230672e-01  6.5178576244725894e-01  6.4789700261612360e-01  6.4418270019866919e-01  6.4066673211889102e-01  6.3736516375200802e-01  6.3428367067678415e-01  6.3141436915065285e-01  6.2873193522698356e-01  6.2618889074238959e-01  6.2370994343245179e-01  6.2118531672075528e-01  6.1846316530754908e-01  6.1534159832966961e-01  6.1156182197058140e-01  6.0680606900262024e-01  6.0070855603512563e-01  5.9289724845634606e-01  5.8310303632270555e-01  5.7140270071949595e-01  5.5866703293715747e-01  5.4714905181300322e-01  5.4083421335883153e-01  0.0000000000000000e+00  2.6630142451003248e-02  5.2667068305833356e-02  7.8119471056917467e-02  1.0299672132356402e-01  1.2730881546326633e-01  1.5106641726171544e-01  1.7428082414617138e-01  1.9696375903349114e-01  2.1912697305433759e-01  2.4078171871677939e-01  2.6193819715306227e-01  2.8260508402579787e-01  3.0278920132841253e-01  3.2249535048410594e-01  3.4172628322467452e-01  3.6048277408615809e-01  3.7876376736128997e-01  3.9656658813566054e-01  4.1388721881637608e-01  4.3072064279073746e-01  4.4706124599310837e-01  4.6290325136482646e-01  4.7824114922236399e-01  4.9307008509341477e-01  5.0738617638764627e-01  5.2118674511199214e-01  5.3447046839312717e-01  5.4723745684348291e-01  5.5948927195197884e-01  5.7122888993820864e-01  5.8246061423973405e-01  5.9318993515760932e-01  6.0342333551547778e-01  6.1316804649751488e-01  6.2243176703677083e-01  6.3122236982279212e-01  6.3954762267771592e-01  6.4741495258675341e-01  6.5483127134598251e-01  6.6180287011681571e-01  6.6833537959006495e-01  6.7443378582902014e-01  6.8010248952770624e-01  6.8534539696579666e-01  6.9016603254614206e-01  6.9456766421496074e-01  6.9855343386735202e-01  7.0212648522470333e-01  7.0529008209127286e-01  7.0804771078464623e-01  7.1040316212602417e-01  7.1236059066325486e-01  7.1392455156681112e-01  7.1510001855770866e-01  7.1589238895744700e-01  7.1630748420939683e-01  7.1635155578414600e-01  7.1603130704170936e-01  7.1535394115794348e-01  7.1432724342448628e-01  7.1295970303896639e-01  7.1126067516778768e-01  7.0924057924378914e-01  7.0691112510056542e-01  7.0428555554971239e-01  7.0137889285315891e-01  6.9820817705228710e-01  6.9479268552754658e-01  6.9115412444143509e-01  6.8731678293348364e-01  6.8330763958775664e-01  6.7915640797077714e-01  6.7489550500305739e-01  6.7055992444279799e-01  6.6618699983561003e-01  6.6181604776132930e-01  6.5748789143986042e-01  6.5324427256272177e-01  6.4912716089058786e-01  6.4517796451923004e-01  6.4143663088500036e-01  6.3794061506135291e-01  6.3472368394599066e-01  6.3181452738592359e-01  6.2923516310738148e-01  6.2699915398010153e-01  6.2510970918564501e-01  6.2355783145626098e-01  6.2232084100602658e-01  6.2136193672945106e-01  6.2063209791386231e-01  6.2007683759929955e-01  6.1965249570919001e-01  6.1936049418456585e-01  6.1931381447222555e-01  6.1985696096758258e-01  6.2176123992703003e-01  6.2648988132713423e-01  6.3645185753984779e-01  6.5507789717851861e-01  0.0000000000000000e+00  2.6592470392893829e-02  5.2599954603449954e-02  7.8030454719310624e-02  1.0289258271083475e-01  1.2719550706034016e-01  1.5094899605652615e-01  1.7416338915183141e-01  1.9684940239921112e-01  2.1901776053268673e-01  2.4067871701990937e-01  2.6184155730049724e-01  2.8251417492707281e-01  3.0270277555070163e-01  3.2241172085466474e-01  3.4164349406639372e-01  3.6039875913399355e-01  3.7867649249518148e-01  3.9647417875312457e-01  4.1378806976768762e-01  4.3061350579598306e-01  4.4694528798863231e-01  4.6277807879796429e-01  4.7810679758029134e-01  4.9292697798098950e-01  5.0723506200712321e-01  5.2102861884825202e-01  5.3430648870779496e-01  5.4706885912563463e-01  5.5931728269562919e-01  5.7105464241910975e-01  5.8228506693654214e-01  5.9301379523086395e-01  6.0324699111751923e-01  6.1299151272534957e-01  6.2225465018579107e-01  6.3104385290987097e-01  6.3936647235945454e-01  6.4722954459474114e-01  6.5463962945672183e-01  6.6160271301164109e-01  6.6812417056518547e-01  6.7420878156186137e-01  6.7986078535633987e-01  6.8508396703797125e-01  6.8988176370732390e-01  6.9425738278950644e-01  6.9821392474253241e-01  7.0175450300872577e-01  7.0488235461519511e-01  7.0760093579309058e-01  7.0991399853887793e-01  7.1182564617121968e-01  7.1334036846312843e-01  7.1446305957561751e-01  7.1519902449894890e-01  7.1555398177563045e-01  7.1553407173754013e-01  7.1514588015364533e-01  7.1439648685355961e-01  7.1329354737255524e-01  7.1184541287766379e-01  7.1006128977128502e-01  7.0795143597797783e-01  7.0552738683502358e-01  7.0280220057230047e-01  6.9979071208731791e-01  6.9650978403421082e-01  6.9297854554979743e-01  6.8921861035892029e-01  6.8525426673536116e-01  6.8111263142597167e-01  6.7682375835004915e-01  6.7242069153045292e-01  6.6793945173641311e-01  6.6341894921551847e-01  6.5890082129147021e-01  6.5442920239123814e-01  6.5005044239986431e-01  6.4581279395111069e-01  6.4176608898953125e-01  6.3796142153727931e-01  6.3445085175555149e-01  6.3128715194248919e-01  6.2852363343938811e-01  6.2621412900493112e-01  6.2441326275658582e-01  6.2317722742502946e-01  6.2256542448089347e-01  6.2264354449248482e-01  6.2348904120194204e-01  6.2520058864103967e-01  6.2791414341026386e-01  6.3182979683647900e-01  6.3725568666427479e-01  6.4467727567773336e-01  6.5486014944121418e-01  6.6898713913610541e-01  6.8880988685523903e-01  7.1676357453367257e-01  7.5597536514673225e-01  0.0000000000000000e+00  2.6549046119553395e-02  5.2522653191404423e-02  7.7927957813691412e-02  1.0277265260334888e-01  1.2706492379945358e-01  1.5081349351747558e-01  1.7402759730280762e-01  1.9671680621037863e-01  2.1889069134599615e-01  2.4055839259624856e-01  2.6172817827402545e-01  2.8240707162082757e-01  3.0260058793510342e-01  3.2231259130167378e-01  3.4154525690779086e-01  3.6029911822295424e-01  3.7857318337688323e-01  3.9636511364645055e-01  4.1367146204508531e-01  4.3048796826803321e-01  4.4680989842511093e-01  4.6263240804053479e-01  4.7795089990409678e-01  4.9276134822977152e-01  5.0706056741556171e-01  5.2084641431160394e-01  5.3411792288423821e-01  5.4687537636762240e-01  5.5912032367772935e-01  5.7085554526703675e-01  5.8208497088011135e-01  5.9281355001499669e-01  6.0304707693674209e-01  6.1279197639854954e-01  6.2205506284698420e-01  6.3084329236714165e-01  6.3916352997677572e-01  6.4702235320548318e-01  6.5442590655750932e-01  6.6137981284669178e-01  6.6788913945933370e-01  6.7395841229573483e-01  6.7959166780556357e-01  6.8479253333313428e-01  6.8956432676776780e-01  6.9391016740435174e-01  6.9783309062548948e-01  7.0133615958636841e-01  7.0442256776735279e-01  7.0709572730324777e-01  7.0935933953145813e-01  7.1121744619983385e-01  7.1267446208312779e-01  7.1373519214437919e-01  7.1440483860379722e-01  7.1468900513572187e-01  7.1459370673574285e-01  7.1412539442979972e-01  7.1329100376664278e-01  7.1209803477889033e-01  7.1055466873668705e-01  7.0866992368487280e-01  7.0645384688539326e-01  7.0391773857793438e-01  7.0107439867291854e-01  6.9793838661094310e-01  6.9452628471148015e-01  6.9085695647042245e-01  6.8695179275978846e-01  6.8283494007543222e-01  6.7853350552088543e-01  6.7407773324504539e-01  6.6950114724150334e-01  6.6484065684289617e-01  6.6013662498614167e-01  6.5543290584841873e-01  6.5077686706798110e-01  6.4621942068034444e-01  6.4181509417903715e-01  6.3762217810219590e-01  6.3370299091293714e-01  6.3012430956111287e-01  6.2695803005497752e-01  6.2428215175409185e-01  6.2218222663142431e-01  6.2075348544890308e-01  6.2010395428571286e-01  6.2035902175344837e-01  6.2166813645678864e-01  6.2421464778601632e-01  6.2823030134550262e-01  6.3401659602809024e-01  6.4197605445113659e-01  6.5265718577096665e-01  6.6681679915724812e-01  6.8550090026297361e-01  7.1013877203800935e-01  7.4263358316023009e-01  7.8542155548150083e-01  8.4147098480789650e-01  0.0000000000000000e+00  2.6500607726403301e-02  5.2436493994058232e-02  7.7813757178644277e-02  1.0263901644331161e-01  1.2691933196641847e-01  1.5066224289575311e-01  1.7387575208947520e-01  1.9656816786621317e-01  2.1874780348599449e-01  2.4042259485325446e-01  2.6159971490505546e-01  2.8228524853964643e-01  3.0248396236461705e-01  3.2219917554048616e-01  3.4143272117754681e-01  3.6018498339633770e-01  3.7845499881803418e-01  3.9624061675875399e-01  4.1353871500696593e-01  4.3034546575023880e-01  4.466566398